/home/lever046/lever046/psi4conda/etc/profile.d/conda.cshnconda: No such file or directory.
----- GAMESS execution script 'rungms' -----
This job is running on host acn32
under operating system Linux at Thu Apr 25 11:29:26 CDT 2024
SLURM has assigned the following compute nodes to this run:
acn32
Available scratch disk space (Kbyte units) at beginning of the job is
Filesystem           1K-blocks      Used Available Use% Mounted on
/dev/mapper/job_163415605_crypt
                       9982804     36892   9929528   1% /tmp
GAMESS temporary binary files will be written to /tmp
GAMESS supplementary output files will be written to /scratch.global/lever046/gamess/163415605
Copying input file gms_dye01_b3lyp_meth_uvv.inp to your run's scratch directory...
cp gms_dye01_b3lyp_meth_uvv.inp /tmp/gms_dye01_b3lyp_meth_uvv.F05
unset echo
setenv I_MPI_WAIT_MODE enable
setenv I_MPI_PIN disable
setenv I_MPI_DEBUG 0
setenv I_MPI_STATS 0
setenv I_MPI_DAT_LIBRARY libdat2.so
setenv I_MPI_SHM_LMT shm
unset echo
MPI kickoff will run GAMESS on 16 cores in 1 nodes.
The binary to be executed is /common/software/install/migrated/gamess/october_2019/gamess.00.x
MPI will run 16 compute processes and 16 data servers,
    placing 16 of each process type onto each node.
The scratch disk space on each node is /tmp, with free space
Filesystem           1K-blocks      Used Available Use% Mounted on
/dev/mapper/job_163415605_crypt
                       9982804     36904   9929516   1% /tmp
setenv I_MPI_HYDRA_ENV all
setenv I_MPI_PERHOST 32
unset echo
if ( impi == impi ) then
mpirun -hostfile /tmp/gms_dye01_b3lyp_meth_uvv.processes.mpd -np 32 /common/software/install/migrated/gamess/october_2019/gamess.00.x
srun: Job 163415605 step creation temporarily disabled, retrying (Requested nodes are busy)
srun: Step created for job 163415605
          ******************************************************
          *         GAMESS VERSION = 30 SEP 2019 (R2)          *
          *             FROM IOWA STATE UNIVERSITY             *
          * M.W.SCHMIDT, K.K.BALDRIDGE, J.A.BOATZ, S.T.ELBERT, *
          *   M.S.GORDON, J.H.JENSEN, S.KOSEKI, N.MATSUNAGA,   *
          *          K.A.NGUYEN, S.J.SU, T.L.WINDUS,           *
          *       TOGETHER WITH M.DUPUIS, J.A.MONTGOMERY       *
          *         J.COMPUT.CHEM.  14, 1347-1363(1993)        *
          **************** 64 BIT INTEL VERSION ****************

  SINCE 1993, STUDENTS AND POSTDOCS WORKING AT IOWA STATE UNIVERSITY
  AND ALSO IN THEIR VARIOUS JOBS AFTER LEAVING ISU HAVE MADE IMPORTANT
  CONTRIBUTIONS TO THE CODE:
     IVANA ADAMOVIC, CHRISTINE AIKENS, YURI ALEXEEV, POOJA ARORA,
     ANDREY ASADCHEV, ROB BELL, PRADIPTA BANDYOPADHYAY, JONATHAN BENTZ,
     COLLEEN BERTONI, BRETT BODE, KURT BRORSEN, CALEB CARLIN, GALINA CHABAN,
     WEI CHEN, CHEOL HO CHOI, PAUL DAY, ALBERT DEFUSCO, NUWAN DESILVA,
     TIM DUDLEY, DMITRI FEDOROV, ALEX FINDLATER, GRAHAM FLETCHER, 
     MARK FREITAG, KURT GLAESEMANN, EMILIE B GUIDEZ, ANASTASIA GUNINA, 
     DAN KEMP, SAROM SOK LEANG, GRANT MERRILL,
     NORIYUKI MINEZAWA, JONATHAN MULLIN,
     TAKESHI NAGATA, SEAN NEDD, HEATHER NETZLOFF, BOSILJKA NJEGIC, RYAN OLSON,
     MIKE PAK, BUU PHAM, DAVID POOLE,
     SPENCER PRUITT, LUKE ROSKOP, TOSAPORN SATTASATHUCHANA,
     JIM SHOEMAKER, LYUDMILA SLIPCHENKO,
     TONY SMITH, JIE SONG, TETSUYA TAKETSUGU, SIMON WEBB,
     JORGE LUIS GALVEZ VALLEJO, PENG XU, SOOHAENG YOO,
     FEDERICO ZAHARIEV

  ADDITIONAL CODE HAS BEEN PROVIDED BY COLLABORATORS IN OTHER GROUPS:
     IOWA STATE UNIVERSITY:
          JOE IVANIC, AARON WEST, LAIMUTIS BYTAUTAS, KLAUS RUEDENBERG
     UNIVERSITY OF TOKYO: KIMIHIKO HIRAO, TAKAHITO NAKAJIMA,
          TAKAO TSUNEDA, MUNEAKI KAMIYA, SUSUMU YANAGISAWA,
          KIYOSHI YAGI, MAHITO CHIBA, SEIKEN TOKURA, NAOAKI KAWAKAMI
     UNIVERSITY OF AARHUS: FRANK JENSEN
     UNIVERSITY OF IOWA: VISVALDAS KAIRYS, HUI LI
     NATIONAL INST. OF STANDARDS AND TECHNOLOGY: WALT STEVENS, DAVID GARMER
     UNIVERSITY OF PISA: BENEDETTA MENNUCCI, JACOPO TOMASI
     UNIVERSITY OF MEMPHIS: HENRY KURTZ, PRAKASHAN KORAMBATH
     UNIVERSITY OF ALBERTA: TOBY ZENG, MARIUSZ KLOBUKOWSKI
     UNIVERSITY OF NEW ENGLAND: MARK SPACKMAN
     MIE UNIVERSITY: HIROAKI UMEDA
     NAT. INST. OF ADVANCED INDUSTRIAL SCIENCE AND TECHNOLOGY: KAZUO KITAURA
     MICHIGAN STATE UNIVERSITY:
          KAROL KOWALSKI, MARTA WLOCH, JEFFREY GOUR, JESSE LUTZ,
          WEI LI, JUN SHEN, J. EMILIANO DEUSTUA, PIOTR PIECUCH
     UNIVERSITY OF MINNESOTA:
          ANDREW SAND, PRACHI SHARMA, YINAN SHU
     UNIVERSITY OF SILESIA: MONIKA MUSIAL, STANISLAW KUCHARSKI
     FACULTES UNIVERSITAIRES NOTRE-DAME DE LA PAIX:
          OLIVIER QUINET, BENOIT CHAMPAGNE
     UNIVERSITY OF CALIFORNIA - SANTA BARBARA: BERNARD KIRTMAN
     INSTITUTE FOR MOLECULAR SCIENCE:
          KAZUYA ISHIMURA, MICHIO KATOUDA, AND SHIGERU NAGASE
     UNIVERSITY OF NOTRE DAME: ANNA POMOGAEVA, DAN CHIPMAN
     KYUSHU UNIVERSITY:
          HARUYUKI NAKANO,
          FENG LONG GU, JACEK KORCHOWIEC, MARCIN MAKOWSKI, AND YURIKO AOKI,
          HIROTOSHI MORI AND EISAKU MIYOSHI
     PENNSYLVANIA STATE UNIVERSITY:
          TZVETELIN IORDANOV, CHET SWALINA, JONATHAN SKONE,
          SHARON HAMMES-SCHIFFER
     WASEDA UNIVERSITY:
          MASATO KOBAYASHI, TOMOKO AKAMA, TSUGUKI TOUMA,
          TAKESHI YOSHIKAWA, YASUHIRO IKABATA, JUNJI SEINO,
          YUYA NAKAJIMA, HIROMI NAKAI
     NANJING UNIVERSITY: SHUHUA LI
     UNIVERSITY OF NEBRASKA:
          PEIFENG SU, DEJUN SI, NANDUN THELLAMUREGE, YALI WANG, HUI LI
     UNIVERSITY OF ZURICH: ROBERTO PEVERATI, KIM BALDRIDGE
     N. COPERNICUS UNIVERSITY AND JACKSON STATE UNIVERSITY:
          MARIA BARYSZ
     UNIVERSITY OF COPENHAGEN: Jimmy Kromann, CASPER STEINMANN
     TOKYO INSTITUTE OF TECHNOLOGY: HIROYA NAKATA
     NAGOYA UNIVERSITY: YOSHIO NISHIMOTO, STEPHAN IRLE
     MOSCOW STATE UNIVERSITY: VLADIMIR MIRONOV
     A.N.NESMEYANOV INSTITUTE OF ORGANOELEMENT COMPOUNDS OF RUSSIAN ACADEMY OF SCIENCES:
          IGOR S. GERASIMOV
     JOHANNES KEPLER UNIVERSITY LINZ:
          CHRISTIAN FRIEDL


 PARALLEL VERSION RUNNING ON       16 PROCESSORS IN        1 NODES.

 EXECUTION OF GAMESS BEGUN Thu Apr 25 11:29:28 2024

            ECHO OF THE FIRST FEW INPUT CARDS -
 INPUT CARD> $BASIS GBASIS=N31 NGAUSS=6 NPFUNC=1 DIFFSP=.t. $END                            
 INPUT CARD> $CONTRL SCFTYP=RHF RUNTYP=ENERGY ICHARG=1 MULT=1 MAXIT=200 $END                
 INPUT CARD> $CONTRL DFTTYP=B3LYP ISPHER=1 TDDFT=EXCITE $END                                
 INPUT CARD> $TDDFT NSTATE=10 $END                                                          
 INPUT CARD> $FORCE METHOD=SEMINUM $END                                                     
 INPUT CARD> $SCF DIRSCF=.t. DAMP=.t. $END                                                  
 INPUT CARD> $STATPT HSSEND=.t. NSTEP=200 $END                                              
 INPUT CARD> $SYSTEM MWORDS=100 $END                                                        
 INPUT CARD> $PCM SOLVNT=METHANOL SMD=.t. $END                                              
 INPUT CARD> $DATA                                                                          
 INPUT CARD> Title                                                                          
 INPUT CARD> C1                                                                             
 INPUT CARD>N     7.0    -2.15030     0.41850    -0.43230                                   
 INPUT CARD>N     7.0     2.41730     0.91950     0.04830                                   
 INPUT CARD>C     6.0    -1.35370     0.61410     0.62080                                   
 INPUT CARD>C     6.0     1.11090     0.41950     0.23640                                   
 INPUT CARD>C     6.0    -3.39870    -0.07280    -0.31760                                   
 INPUT CARD>C     6.0     3.52950     0.02910    -0.10420                                   
 INPUT CARD>C     6.0    -0.00370     1.15310     0.42610                                   
 INPUT CARD>C     6.0    -1.62290     0.76080    -1.76630                                   
 INPUT CARD>C     6.0     2.73860     2.35020    -0.00240                                   
 INPUT CARD>C     6.0    -3.89190    -0.39650     0.96580                                   
 INPUT CARD>C     6.0     3.30710    -1.36920    -0.09530                                   
 INPUT CARD>C     6.0    -1.77690     0.31750     1.90070                                   
 INPUT CARD>C     6.0     0.92990    -1.03210     0.22830                                   
 INPUT CARD>C     6.0    -3.05880    -0.19280     2.07420                                   
 INPUT CARD>C     6.0     1.94850    -1.88410     0.07200                                   
 INPUT CARD>C     6.0    -4.19640    -0.26050    -1.45070                                   
 INPUT CARD>C     6.0     4.85940     0.46650    -0.26370                                   
 INPUT CARD>C     6.0    -5.19380    -0.90860     1.08190                                   
 INPUT CARD>C     6.0     4.36950    -2.27380    -0.24350                                   
 INPUT CARD>C     6.0    -1.92930     2.20150    -2.12840                                   
 INPUT CARD>C     6.0     3.25240     2.85100     1.33160                                   
 INPUT CARD>C     6.0    -5.48700    -0.77010    -1.31620                                   
 INPUT CARD>C     6.0     5.91470    -0.44000    -0.41040                                   
 INPUT CARD>C     6.0    -5.98450    -1.09320    -0.05410                                   
 INPUT CARD>C     6.0     5.67040    -1.80760    -0.40100                                   
 INPUT CARD>H     1.0     0.03090     2.23730     0.46080                                   
 INPUT CARD>H     1.0    -0.54470     0.59450    -1.81410                                   
 INPUT CARD>H     1.0    -1.98110     0.05600    -2.52000                                   
 INPUT CARD>H     1.0     3.43900     2.58420    -0.81320                                   
 INPUT CARD>H     1.0     1.85560     2.93980    -0.27310                                   
 INPUT CARD>H     1.0    -1.13830     0.47310     2.76520                                   
 INPUT CARD>H     1.0    -0.05250    -1.47810     0.34330                                   
 INPUT CARD>H     1.0    -3.40330    -0.43010     3.07800                                   
 INPUT CARD>H     1.0     1.78270    -2.95580     0.06750                                   
 INPUT CARD>H     1.0    -3.90220    -0.00530    -2.46100                                   
 INPUT CARD>H     1.0     5.13300     1.51650    -0.28240                                   
 INPUT CARD>H     1.0    -5.60210    -1.16700     2.05640                                   
 INPUT CARD>H     1.0     4.19200    -3.34680    -0.23650                                   
  100000000 WORDS OF MEMORY AVAILABLE

     BASIS OPTIONS
     -------------
     GBASIS=N31          IGAUSS=       6      POLAR=POPN31  
     NDFUNC=       0     NFFUNC=       0     DIFFSP=       T
     NPFUNC=       1      DIFFS=       F     BASNAM=        


     RUN TITLE
     ---------
  Title                                                                          

 THE POINT GROUP OF THE MOLECULE IS C1      
 THE ORDER OF THE PRINCIPAL AXIS IS     0

 ATOM      ATOMIC                      COORDINATES (BOHR)
           CHARGE         X                   Y                   Z
 N           7.0    -4.0634777914        0.7908503259       -0.8169285445
 N           7.0     4.5680346301        1.7376030457        0.0912737652
 C           6.0    -2.5581220696        1.1604807291        1.1731418932
 C           6.0     2.0992965998        0.7927400518        0.4467312235
 C           6.0    -6.4226117145       -0.1375720519       -0.6001769737
 C           6.0     6.6697878737        0.0549910262       -0.1969094479
 C           6.0    -0.0069919862        2.1790430364        0.8052122434
 C           6.0    -3.0668363055        1.4377035315       -3.3378230121
 C           6.0     5.1752035900        4.4412340163       -0.0045353424
 C           6.0    -7.3546245716       -0.7492763541        1.8250973589
 C           6.0     6.2495128140       -2.5874128224       -0.1800908866
 C           6.0    -3.3578541076        0.5999880011        3.5918021849
 C           6.0     1.7572561960       -1.9503861919        0.4314244430
 C           6.0    -5.7802938512       -0.3643391704        3.9196696437
 C           6.0     3.6821310871       -3.5604327335        0.1360602711
 C           6.0    -7.9300461349       -0.4922736198       -2.7414254904
 C           6.0     9.1829344647        0.8815571733       -0.4983207430
 C           6.0    -9.8148588350       -1.7170050324        2.0444945461
 C           6.0     8.2571577034       -4.2968589509       -0.4601482780
 C           6.0    -3.6458483481        4.1602317620       -4.0220927923
 C           6.0     6.1461448025        5.3876087910        2.5163591253
 C           6.0   -10.3689264946       -1.4552779831       -2.4872573450
 C           6.0    11.1771622996       -0.8314794346       -0.7755435454
 C           6.0   -11.3090651735       -2.0658484498       -0.1022341759
 C           6.0    10.7155022408       -3.4158686954       -0.7577801211
 H           1.0     0.0583925330        4.2278839523        0.8707857351
 H           1.0    -1.0293337455        1.1234420997       -3.4281519143
 H           1.0    -3.7437361543        0.1058246553       -4.7621094891
 H           1.0     6.4987676718        4.8834298975       -1.5367251732
 H           1.0     3.5065755428        5.5554164587       -0.5160841672
 H           1.0    -2.1510750918        0.8940293648        5.2254703012
 H           1.0    -0.0992106144       -2.7932039825        0.6487429316
 H           1.0    -6.4313044540       -0.8127711473        5.8165765902
 H           1.0     3.3688145183       -5.5856520745        0.1275565042
 H           1.0    -7.3740887493       -0.0100155477       -4.6506156558
 H           1.0     9.6999634950        2.8657694604       -0.5336586189
 H           1.0   -10.5864339558       -2.2053102277        3.8860325212
 H           1.0     7.9217313405       -6.3245349357       -0.4469201961
 H           1.0    -2.8221167901        5.4820950904       -2.6630018619
 H           1.0    -2.8786195971        4.6050732595       -5.8904648763
 H           1.0    -5.6833509081        4.5092641519       -4.0693359420
 H           1.0     6.5804038344        7.4069699815        2.3984402236
 H           1.0     4.7156222298        5.1360862620        3.9918571765
 H           1.0     7.8540791502        4.4113763457        3.1469606874
 H           1.0   -11.5473596206       -1.7181388680       -4.1475705979
 H           1.0    13.0950452045       -0.1356823259       -1.0062790885
 H           1.0   -13.2120192432       -2.8124791875        0.0869273954
 H           1.0    12.2664003589       -4.7417004484       -0.9735868289

          INTERNUCLEAR DISTANCES (ANGS.)
          ------------------------------

                1 N          2 N          3 C          4 C          5 C     

   1 N       0.0000000    4.6200592    1.3348597 *  3.3290518    1.3464896 *
   2 N       4.6200592    0.0000000    3.8264169    1.4114045 *  5.9113787  
   3 C       1.3348597 *  3.8264169    0.0000000    2.5019764 *  2.3525414 *
   4 C       3.3290518    1.4114045 *  2.5019764 *  0.0000000    4.5700949  
   5 C       1.3464896 *  5.9113787    2.3525414 *  4.5700949    0.0000000  
   6 C       5.7025792    1.4328493 *  4.9712667    2.4734685 *  6.9322347  
   7 C       2.4257740 *  2.4614107 *  1.4666046 *  1.3477716 *  3.6853691  
   8 C       1.4747461 *  4.4318365    2.4067065 *  3.4060175    2.4386649 *
   9 C       5.2742414    1.4672105 *  4.4888017    2.5365400 *  6.6058104  
  10 C       2.3774102 *  6.5099667    2.7536878 *  5.1211218    1.4124955 *
  11 C       5.7526216    2.4597790 *  5.1155972    2.8518007 *  6.8335806  
  12 C       2.3648504 *  4.6244030    1.3802948 *  3.3346195    2.7755043 *
  13 C       3.4681789    2.4603864 *  2.8423335 *  1.4628633 *  4.4671066  
  14 C       2.7352518 *  5.9438332    2.3813494 *  4.5976971    2.4188095 *
  15 C       4.7282604    2.8426235 *  4.1769258    2.4566591 *  5.6590762  
  16 C       2.3842619 *  6.8833443    3.6244973    5.6103600    1.3983820 *
  17 C       7.0118916    2.5032789 *  6.2774786    3.7820049    8.2758664  
  18 C       3.6492312    7.8955128    4.1566328    6.4983045    2.4247775 *
  19 C       7.0563388    3.7541173    6.4685392    4.2547201    8.0743311  
  20 C       2.4707661 *  5.0273729    3.2263377    4.2438920    3.2573875  
  21 C       6.1820358    2.4647400 *  5.1696340    3.4201868    7.4502079  
  22 C       3.6507008    8.1972292    4.7699211    6.8817149    2.4175248 *
  23 C       8.1105935    3.7802715    7.4164775    4.9227619    9.3210980  
  24 C       4.1387633    8.6401210    4.9814327    7.2606716    2.7923127 *
  25 C       8.1314113    4.2686771    7.4997791    5.1142246    9.2339082  
  26 H       2.9771286 *  2.7571105 *  2.1395082 *  2.1263001 *  4.2076864  
  27 H       2.1256290 *  3.5139156    2.5658533 *  2.6412472 *  3.2909144  
  28 H       2.1256825 *  5.1660158    3.2511123    4.1581651    2.6223549 *
  29 H       6.0062980    2.1347785 *  5.3765810    3.3477807    7.3525104  
  30 H       4.7359828    2.1214186 *  4.0629477    2.6769536 *  6.0568480  
  31 H       3.3542706    4.4970112    2.1597985 *  3.3847604    3.8614856  
  32 H       2.9324754 *  3.4547681    2.4794008 *  2.2284104 *  3.6889987  
  33 H       3.8226087    6.6992452    3.3658648    5.4013436    3.4143497  
  34 H       5.2061684    3.9269627    4.7840706    3.4456483    5.9419607  
  35 H       2.7137398 *  6.8620640    4.0467271    5.7085544    2.2027783 *
  36 H       7.3671251    2.8001425 *  6.6111552    4.2011726    8.6785378  
  37 H       4.5411850    8.5262374    4.8251598    7.1339856    3.4187894  
  38 H       7.3783867    4.6294694    6.8686593    4.8889495    8.2670660  
  39 H       2.7474820 *  4.6199808    3.0610991    3.9557831    3.6966532  
  40 H       3.4169019    5.2773657    4.1621221    4.7175072    4.2015378  
  41 H       2.7511489 *  6.0354906    3.6839623    5.1517251    3.0935223  
  42 H       6.8467408    3.4095760    5.8934440    4.3520615    8.1119650  
  43 H       5.7745361    2.7387682 *  4.6331864    3.2739668    6.9594052  
  44 H       6.9168303    2.7641281 *  5.8659535    3.8707169    8.1733113  
  45 H       4.5335604    9.0055938    5.7337722    7.7347424    3.4026235  
  46 H       9.0936801    4.6562706    8.3912823    5.8898092   10.3305355  
  47 H       5.2251196    9.7120041    6.0444412    8.3261539    3.8786669  
  48 H       9.1242585    5.3543779    8.5197644    6.1716074   10.1874057  

                6 C          7 C          8 C          9 C         10 C     

   1 N       5.7025792    2.4257740 *  1.4747461 *  5.2742414    2.3774102 *
   2 N       1.4328493 *  2.4614107 *  4.4318365    1.4672105 *  6.5099667  
   3 C       4.9712667    1.4666046 *  2.4067065 *  4.4888017    2.7536878 *
   4 C       2.4734685 *  1.3477716 *  3.4060175    2.5365400 *  5.1211218  
   5 C       6.9322347    3.6853691    2.4386649 *  6.6058104    1.4124955 *
   6 C       0.0000000    3.7454100    5.4630749    2.4542598 *  7.5102073  
   7 C       3.7454100    0.0000000    2.7536023 *  3.0227256    4.2202649  
   8 C       5.4630749    2.7536023 *  0.0000000    4.9659055    3.7352476  
   9 C       2.4542598 *  3.0227256    4.9659055    0.0000000    7.2419129  
  10 C       7.5102073    4.2202649    3.7352476    7.2419129    0.0000000  
  11 C       1.4159039 *  4.1946695    5.6244147    3.7637427    7.3415039  
  12 C       5.6798485    2.4529392 *  3.6969068    5.3050353    2.4201362 *
  13 C       2.8274762 *  2.3844984 *  3.7026622    3.8424694    4.9191106  
  14 C       6.9426481    3.7230789    4.2095845    6.6625043    1.4014635 *
  15 C       2.4881603 *  3.6278169    4.8093389    4.3080262    6.0927912  
  16 C       7.8477042    4.8061811    2.7866753 *  7.5503346    2.4394033 *
  17 C       1.4090398 *  4.9595348    6.6606781    2.8485779 *  8.8792844  
  18 C       8.8533653    5.6229724    4.8631745    8.6439837    1.4038053 *
  19 C       2.4552704 *  5.5961492    6.8874215    4.9091079    8.5578848  
  20 C       6.2141134    3.3663850    1.5167775 *  5.1314012    4.4917120  
  21 C       3.1782740    3.7821927    6.1428390    1.5147102 *  7.8562770  
  22 C       9.1326303    6.0663734    4.1806116    8.8951019    2.8091716 *
  23 C       2.4501005 *  6.1858838    7.7521480    4.2472687    9.9027886  
  24 C       9.5800972    6.4067483    5.0390971    9.3782808    2.4299304 *
  25 C       2.8363727 *  6.4533131    7.8519391    5.1031004    9.7620145  
  26 H       4.1755927    1.0853068 *  3.1424642    2.7493526 *  4.7518720  
  27 H       4.4544967    2.3713311 *  1.0919962 *  4.1406278    4.4624738  
  28 H       6.0169366    3.7139257    1.0922976 *  5.8204151    4.0008392  
  29 H       2.6531881 *  3.9288796    5.4640661    1.0966826 *  8.1111965  
  30 H       3.3619403    2.6717361 *  4.3677969    1.0957170 *  6.7601425  
  31 H       5.4971765    2.6872116 *  4.5664100    5.1199090    3.4024047  
  32 H       3.9118579    2.6329548 *  3.4538734    4.7503293    4.0371224  
  33 H       7.6420532    4.5930791    5.2967263    7.4122782    2.1682361 *
  34 H       3.4627185    4.4947612    5.3641448    5.3918704    6.2895186  
  35 H       7.7965284    4.9875384    2.5029434 *  7.4627956    3.4490726  
  36 H       2.1943852 *  5.1980495    6.9581051    2.5508052 *  9.3094786  
  37 H       9.4596494    6.2755737    5.8449534    9.2831368    2.1697610 *
  38 H       3.4428346    6.1880560    7.2818767    5.8841298    8.6890296  
  39 H       5.9313033    2.9398447 *  2.1736482 *  4.4935833    4.7187852  
  40 H       6.3565600    4.0634459    2.1549691 *  5.2794568    5.5053151  
  41 H       7.2448264    4.1469471    2.1699974 *  6.1356142    4.2725860  
  42 H       4.1260702    4.5294413    6.7271334    2.1524228 *  8.5497439  
  43 H       3.6348760    3.3967201    5.9862299    2.1602612 *  7.1980400  
  44 H       2.9729264 *  4.4984280    6.9029046    2.1888496 *  8.5275453  
  45 H       9.9087105    6.9581913    4.8074904    9.6818721    3.8954953  
  46 H       3.4284547    7.1056275    8.6810565    4.8694528   10.9295560  
  47 H      10.6309221    7.4800280    6.0962897   10.4599843    3.4125620  
  48 H       3.9221120    7.5153785    8.8371459    6.1610055   10.6987640  

               11 C         12 C         13 C         14 C         15 C     

   1 N       5.7526216    2.3648504 *  3.4681789    2.7352518 *  4.7282604  
   2 N       2.4597790 *  4.6244030    2.4603864 *  5.9438332    2.8426235 *
   3 C       5.1155972    1.3802948 *  2.8423335 *  2.3813494 *  4.1769258  
   4 C       2.8518007 *  3.3346195    1.4628633 *  4.5976971    2.4566591 *
   5 C       6.8335806    2.7755043 *  4.4671066    2.4188095 *  5.6590762  
   6 C       1.4159039 *  5.6798485    2.8274762 *  6.9426481    2.4881603 *
   7 C       4.1946695    2.4529392 *  2.3844984 *  3.7230789    3.6278169  
   8 C       5.6244147    3.6969068    3.7026622    4.2095845    4.8093389  
   9 C       3.7637427    5.3050353    3.8424694    6.6625043    4.3080262  
  10 C       7.3415039    2.4201362 *  4.9191106    1.4014635 *  6.0927912  
  11 C       0.0000000    5.7162950    2.4226913 *  6.8275420    1.4624997 *
  12 C       5.7162950    0.0000000    3.4561696    1.3906027 *  4.6978497  
  13 C       2.4226913 *  3.4561696    0.0000000    4.4745390    1.3371162 *
  14 C       6.8275420    1.3906027 *  4.4745390    0.0000000    5.6517567  
  15 C       1.4624997 *  4.6978497    1.3371162 *  5.6517567    0.0000000  
  16 C       7.7051176    4.1737209    5.4491613    3.7045428    6.5356322  
  17 C       2.4099353 *  6.9819271    4.2342456    8.2824117    3.7565082  
  18 C       8.5943733    3.7214191    6.1841399    2.4607426 *  7.2790073  
  19 C       1.4031957 *  7.0064729    3.6871754    8.0549324    2.4723769 *
  20 C       6.6560708    4.4504302    4.9178480    4.9669195    6.0474144  
  21 C       4.4552355    5.6600667    4.6572248    7.0460924    5.0702978  
  22 C       8.8986354    5.0295289    6.6053561    4.2100169    7.6455710  
  23 C       2.7860866 *  8.0669511    5.0603114    9.3144000    4.2483970  
  24 C       9.2957896    4.8492489    6.9204343    3.7282840    7.9733251  
  25 C       2.4229804 *  8.0793657    4.8445597    9.2159170    3.7526152  
  26 H       4.9040367    3.0045108    3.3987106    4.2490813    4.5622684  
  27 H       4.6526073    3.9236188    2.9986114 *  4.6967454    3.9895961  
  28 H       5.9896097    4.4331330    4.1486185    4.7254642    5.0915821  
  29 H       4.0202176    6.3014915    4.5230444    7.6334928    4.7927940  
  30 H       4.5503787    4.9796506    4.1090525    6.2828598    4.8371206  
  31 H       5.5980453    1.0859934 *  3.6026296    2.1469104 *  4.7263149  
  32 H       3.3898586    2.9365336 *  1.0850119 *  3.6994392    2.0597186 *
  33 H       7.4820592    2.1424561 *  5.2210934    1.0874769 *  6.3080833  
  34 H       2.2062635 *  5.1716407    2.1103901 *  5.9246212    1.0844587 *
  35 H       7.7091352    4.8626666    5.6245749    4.6167650    6.6465532  
  36 H       3.4199681    7.3450830    4.9418849    8.6937252    4.6723356  
  37 H       9.1675811    4.1061098    6.7843328    2.7235560 *  7.8398748  
  38 H       2.1711488 *  7.3227376    4.0268066    8.2377880    2.6959146 *
  39 H       6.5578763    4.2083586    4.9013330    4.9148908    6.0776485  
  40 H       6.8520389    5.4529337    5.4077585    6.0185279    6.3949038  
  41 H       7.6297430    4.7148301    5.7323981    4.9524211    6.9101232  
  42 H       5.4647896    6.4056264    5.6671899    7.7681748    6.1211484  
  43 H       4.7156317    4.9050264    4.4791878    6.2707871    5.0636682  
  44 H       4.1877603    6.2709628    4.8792728    7.6557275    5.0207854  
  45 H       9.6598433    6.0875996    7.4468220    5.2963264    8.4283987  
  46 H       3.8725827    9.0484893    6.1235115   10.3236457    5.3349048  
  47 H      10.3002579    5.8217591    7.9366195    4.6106447    8.9487951  
  48 H       3.4078985    9.0656842    5.8018585   10.1622483    4.6228529  

               16 C         17 C         18 C         19 C         20 C     

   1 N       2.3842619 *  7.0118916    3.6492312    7.0563388    2.4707661 *
   2 N       6.8833443    2.5032789 *  7.8955128    3.7541173    5.0273729  
   3 C       3.6244973    6.2774786    4.1566328    6.4685392    3.2263377  
   4 C       5.6103600    3.7820049    6.4983045    4.2547201    4.2438920  
   5 C       1.3983820 *  8.2758664    2.4247775 *  8.0743311    3.2573875  
   6 C       7.8477042    1.4090398 *  8.8533653    2.4552704 *  6.2141134  
   7 C       4.8061811    4.9595348    5.6229724    5.5961492    3.3663850  
   8 C       2.7866753 *  6.6606781    4.8631745    6.8874215    1.5167775 *
   9 C       7.5503346    2.8485779 *  8.6439837    4.9091079    5.1314012  
  10 C       2.4394033 *  8.8792844    1.4038053 *  8.5578848    4.4917120  
  11 C       7.7051176    2.4099353 *  8.5943733    1.4031957 *  6.6560708  
  12 C       4.1737209    6.9819271    3.7214191    7.0064729    4.4504302  
  13 C       5.4491613    4.2342456    6.1841399    3.6871754    4.9178480  
  14 C       3.7045428    8.2824117    2.4607426 *  8.0549324    4.9669195  
  15 C       6.5356322    3.7565082    7.2790073    2.4723769 *  6.0474144  
  16 C       0.0000000    9.1621510    2.7980177 *  8.8817426    3.4147421  
  17 C       9.1621510    0.0000000   10.2356421    2.7838201 *  7.2507778  
  18 C       2.7980177 * 10.2356421    0.0000000    9.7507519    5.5349533  
  19 C       8.8817426    2.7838201 *  9.7507519    0.0000000    7.9533666  
  20 C       3.4147421    7.2507778    5.5349533    7.9533666    0.0000000  
  21 C       8.5385741    3.2883539    9.2485262    5.4765343    6.2644605  
  22 C       1.3940699 * 10.4730573    2.4199240 * 10.0280801    4.7060923  
  23 C      10.1660606    1.3989000 * 11.2180799    2.4038139 *  8.4532468  
  24 C       2.4168538 * 10.9574980    1.3963451 * 10.4228117    5.6216026  
  25 C      10.0423668    2.4182852 * 11.0017287    1.3908593 *  8.7642589  
  26 H       5.2690514    5.1937506    6.1302481    6.2983737    3.2477103  
  27 H       3.7680230    5.6235595    5.6798113    5.9028206    2.1443765 *
  28 H       2.4801469 *  7.2146961    4.9219486    7.1372642    2.1815600 *
  29 H       8.1730079    2.6084746 *  9.5034884    4.9790112    5.5402938  
  30 H       6.9466082    3.8910302    8.1449523    5.7881080    4.2793332  
  31 H       5.2596537    6.7191282    4.6032243    6.8508099    5.2497970  
  32 H       4.6768465    5.3175821    5.2252106    4.5311761    4.8136405  
  33 H       4.6007494    8.9578492    2.7238333 *  8.6514745    6.0170255  
  34 H       6.7319544    4.6138827    7.3410890    2.6932098 *  6.7229952  
  35 H       1.0827681 *  9.0452395    3.8776696    8.8591433    2.9787453 *
  36 H       9.5687177    1.0852219 * 10.6951027    3.8666290    7.3316453  
  37 H       3.8855482   10.8394727    1.0877177 * 10.2930730    6.5075958  
  38 H       9.0202430    3.8713589    9.7865336    1.0876048 *  8.4754488  
  39 H       4.1596891    6.8990600    5.8661394    7.9063903    1.0938728 *
  40 H       4.1470856    7.2638301    6.5035791    8.0730021    1.0944299 *
  41 H       2.9853461 *  8.3153070    5.1090881    8.9321580    1.0941912 *
  42 H       9.1559811    4.0212388    9.9307388    6.4369066    6.6166370  
  43 H       8.1453505    4.0377158    8.5637158    5.8292010    6.1505304  
  44 H       9.2848742    2.7757128 *  9.9136222    4.9924465    7.1723868  
  45 H       2.1537544 * 11.2233060    3.4025410   10.7471950    5.2119222  
  46 H      11.1654187    2.1558637 * 12.2590109    3.3891646    9.2841208  
  47 H       3.4000276   12.0150317    2.1542670 * 11.3918015    6.6308754  
  48 H      10.9614994    3.4030116   11.9016611    2.1518412 *  9.7824458  

               21 C         22 C         23 C         24 C         25 C     

   1 N       6.1820358    3.6507008    8.1105935    4.1387633    8.1314113  
   2 N       2.4647400 *  8.1972292    3.7802715    8.6401210    4.2686771  
   3 C       5.1696340    4.7699211    7.4164775    4.9814327    7.4997791  
   4 C       3.4201868    6.8817149    4.9227619    7.2606716    5.1142246  
   5 C       7.4502079    2.4175248 *  9.3210980    2.7923127 *  9.2339082  
   6 C       3.1782740    9.1326303    2.4501005 *  9.5800972    2.8363727 *
   7 C       3.7821927    6.0663734    6.1858838    6.4067483    6.4533131  
   8 C       6.1428390    4.1806116    7.7521480    5.0390971    7.8519391  
   9 C       1.5147102 *  8.8951019    4.2472687    9.3782808    5.1031004  
  10 C       7.8562770    2.8091716 *  9.9027886    2.4299304 *  9.7620145  
  11 C       4.4552355    8.8986354    2.7860866 *  9.2957896    2.4229804 *
  12 C       5.6600667    5.0295289    8.0669511    4.8492489    8.0793657  
  13 C       4.6572248    6.6053561    5.0603114    6.9204343    4.8445597  
  14 C       7.0460924    4.2100169    9.3144000    3.7282840    9.2159170  
  15 C       5.0702978    7.6455710    4.2483970    7.9733251    3.7526152  
  16 C       8.5385741    1.3940699 * 10.1660606    2.4168538 * 10.0423668  
  17 C       3.2883539   10.4730573    1.3989000 * 10.9574980    2.4182852 *
  18 C       9.2485262    2.4199240 * 11.2180799    1.3963451 * 11.0017287  
  19 C       5.4765343   10.0280801    2.4038139 * 10.4228117    1.3908593 *
  20 C       6.2644605    4.7060923    8.4532468    5.6216026    8.7642589  
  21 C       0.0000000    9.8234578    4.5774541   10.1388954    5.5273123  
  22 C       9.8234578    0.0000000   11.4423862    1.3945595 * 11.2428454  
  23 C       4.5774541   11.4423862    0.0000000   11.9224402    1.3892806 *
  24 C      10.1388954    1.3945595 * 11.9224402    0.0000000   11.6819263  
  25 C       5.5273123   11.2428454    1.3892806 * 11.6819263    0.0000000  
  26 H       3.3930786    6.5306511    6.5227316    6.8950989    6.9934166  
  27 H       5.4226552    5.1513461    6.6906212    5.9613216    6.8113438  
  28 H       7.0736391    3.7977507    8.1878010    4.8403032    8.1552816  
  29 H       2.1693706 *  9.5487074    3.9290106   10.1440552    4.9433756  
  30 H       2.1293186 *  8.2924779    5.2837669    8.8193094    6.0915404  
  31 H       5.1949845    6.0921723    7.7886453    5.8212887    7.8475990  
  32 H       5.5353598    5.7261675    6.1035392    5.9577428    5.7804963  
  33 H       7.6232455    4.8750794    9.9495807    4.1124622    9.8149365  
  34 H       6.1218374    7.7162457    4.8611791    7.9883328    4.0806944  
  35 H       8.5866504    2.0993040 * 10.0381995    3.3634309    9.9562320  
  36 H       2.8147012 * 10.9124554    2.1107655 * 11.4219727    3.3693479  
  37 H       9.7504784    3.3978241   11.8004370    2.1461329 * 11.5550179  
  38 H       6.4617730   10.0741340    3.3834040   10.4246408    2.1405288 *
  39 H       5.4806115    5.4253539    8.1877853    6.1611613    8.6317676  
  40 H       6.5398563    5.4073106    8.4217945    6.4611052    8.7830689  
  41 H       7.1796666    4.1001285    9.5200372    5.0374412    9.7961632  
  42 H       1.0948095 * 10.4462495    5.2672787   10.7934098    6.3544163  
  43 H       1.0956337 *  9.3616319    5.2941916    9.5460416    6.0727222  
  44 H       1.0931997 * 10.5602353    3.8856336   10.8415209    4.8701706  
  45 H      10.6883287    1.0863534 * 12.1660212    2.1522903 * 11.9505984  
  46 H       5.0536550   12.4608894    1.0865089 * 12.9632597    2.1484596 *
  47 H      11.1990972    2.1528865 * 12.9567447    1.0863577 * 12.6738105  
  48 H       6.5292872   12.1301669    2.1505368 * 12.5641659    1.0857406 *

               26 H         27 H         28 H         29 H         30 H     

   1 N       2.9771286 *  2.1256290 *  2.1256825 *  6.0062980    4.7359828  
   2 N       2.7571105 *  3.5139156    5.1660158    2.1347785 *  2.1214186 *
   3 C       2.1395082 *  2.5658533 *  3.2511123    5.3765810    4.0629477  
   4 C       2.1263001 *  2.6412472 *  4.1581651    3.3477807    2.6769536 *
   5 C       4.2076864    3.2909144    2.6223549 *  7.3525104    6.0568480  
   6 C       4.1755927    4.4544967    6.0169366    2.6531881 *  3.3619403  
   7 C       1.0853068 *  2.3713311 *  3.7139257    3.9288796    2.6717361 *
   8 C       3.1424642    1.0919962 *  1.0922976 *  5.4640661    4.3677969  
   9 C       2.7493526 *  4.1406278    5.8204151    1.0966826 *  1.0957170 *
  10 C       4.7518720    4.4624738    4.0008392    8.1111965    6.7601425  
  11 C       4.9040367    4.6526073    5.9896097    4.0202176    4.5503787  
  12 C       3.0045108    3.9236188    4.4331330    6.3014915    4.9796506  
  13 C       3.3987106    2.9986114 *  4.1486185    4.5230444    4.1090525  
  14 C       4.2490813    4.6967454    4.7254642    7.6334928    6.2828598  
  15 C       4.5622684    3.9895961    5.0915821    4.7927940    4.8371206  
  16 C       5.2690514    3.7680230    2.4801469 *  8.1730079    6.9466082  
  17 C       5.1937506    5.6235595    7.2146961    2.6084746 *  3.8910302  
  18 C       6.1302481    5.6798113    4.9219486    9.5034884    8.1449523  
  19 C       6.2983737    5.9028206    7.1372642    4.9790112    5.7881080  
  20 C       3.2477103    2.1443765 *  2.1815600 *  5.5402938    4.2793332  
  21 C       3.3930786    5.4226552    7.0736391    2.1693706 *  2.1293186 *
  22 C       6.5306511    5.1513461    3.7977507    9.5487074    8.2924779  
  23 C       6.5227316    6.6906212    8.1878010    3.9290106    5.2837669  
  24 C       6.8950989    5.9613216    4.8403032   10.1440552    8.8193094  
  25 C       6.9934166    6.8113438    8.1552816    4.9433756    6.0915404  
  26 H       0.0000000    2.8644855 *  4.2061125    3.6549366    2.0884553 *
  27 H       2.8644855 *  0.0000000    1.6886450 *  4.5640522    3.6927704  
  28 H       4.2061125    1.6886450 *  0.0000000    6.2195213    5.2995404  
  29 H       3.6549366    4.5640522    6.2195213    0.0000000    1.7103552 *
  30 H       2.0884553 *  3.6927704    5.2995404    1.7103552 *  0.0000000  
  31 H       3.1288480    4.6192085    5.3682048    6.1816960    4.9274043  
  32 H       3.7181930    3.0318817    3.7777570    5.4799951    4.8516631  
  33 H       5.0752821    5.7579546    5.7962531    8.4287906    7.0881681  
  34 H       5.4947043    4.6434728    5.4710407    5.8489796    5.9058803  
  35 H       5.3884548    3.4714616    1.9229831 *  7.9570078    6.8273554  
  36 H       5.2060852    5.9525176    7.5993640    2.0715617 *  3.5731247  
  37 H       6.7724358    6.6076431    5.9624497   10.2003723    8.8266452  
  38 H       6.9987966    6.3607385    7.4094928    6.0063594    6.7068207  
  39 H       2.5021767 *  2.5266416 *  3.0928551    4.9783680    3.5366693  
  40 H       3.9059885    2.4596554 *  2.4969570 *  5.4730315    4.4450208  
  41 H       4.0109958    3.0644245    2.5724938 *  6.5873137    5.2432569  
  42 H       3.9236610    6.0645653    7.6898042    2.4741765 *  2.4463289 *
  43 H       3.0054150    5.4007812    6.9702147    3.0769127    2.4797568 *
  44 H       4.2986450    6.1017979    7.7700897    2.5922458 *  3.0686584  
  45 H       7.3939635    5.7780004    4.2532501   10.2619453    9.0536222  
  46 H       7.3423872    7.6125958    9.1305566    4.3951583    5.9061408  
  47 H       7.9602925    7.0256144    5.8372362   11.2302632    9.8985389  
  48 H       8.0756438    7.7988830    9.0762132    5.9453210    7.1580775  

               31 H         32 H         33 H         34 H         35 H     

   1 N       3.3542706    2.9324754 *  3.8226087    5.2061684    2.7137398 *
   2 N       4.4970112    3.4547681    6.6992452    3.9269627    6.8620640  
   3 C       2.1597985 *  2.4794008 *  3.3658648    4.7840706    4.0467271  
   4 C       3.3847604    2.2284104 *  5.4013436    3.4456483    5.7085544  
   5 C       3.8614856    3.6889987    3.4143497    5.9419607    2.2027783 *
   6 C       5.4971765    3.9118579    7.6420532    3.4627185    7.7965284  
   7 C       2.6872116 *  2.6329548 *  4.5930791    4.4947612    4.9875384  
   8 C       4.5664100    3.4538734    5.2967263    5.3641448    2.5029434 *
   9 C       5.1199090    4.7503293    7.4122782    5.3918704    7.4627956  
  10 C       3.4024047    4.0371224    2.1682361 *  6.2895186    3.4490726  
  11 C       5.5980453    3.3898586    7.4820592    2.2062635 *  7.7091352  
  12 C       1.0859934 *  2.9365336 *  2.1424561 *  5.1716407    4.8626666  
  13 C       3.6026296    1.0850119 *  5.2210934    2.1103901 *  5.6245749  
  14 C       2.1469104 *  3.6994392    1.0874769 *  5.9246212    4.6167650  
  15 C       4.7263149    2.0597186 *  6.3080833    1.0844587 *  6.6465532  
  16 C       5.2596537    4.6768465    4.6007494    6.7319544    1.0827681 *
  17 C       6.7191282    5.3175821    8.9578492    4.6138827    9.0452395  
  18 C       4.6032243    5.2252106    2.7238333 *  7.3410890    3.8776696  
  19 C       6.8508099    4.5311761    8.6514745    2.6932098 *  8.8591433  
  20 C       5.2497970    4.8136405    6.0170255    6.7229952    2.9787453 *
  21 C       5.1949845    5.5353598    7.6232455    6.1218374    8.5866504  
  22 C       6.0921723    5.7261675    4.8750794    7.7162457    2.0993040 *
  23 C       7.7886453    6.1035392    9.9495807    4.8611791   10.0381995  
  24 C       5.8212887    5.9577428    4.1124622    7.9883328    3.3634309  
  25 C       7.8475990    5.7804963    9.8149365    4.0806944    9.9562320  
  26 H       3.1288480    3.7181930    5.0752821    5.4947043    5.3884548  
  27 H       4.6192085    3.0318817    5.7579546    4.6434728    3.4714616  
  28 H       5.3682048    3.7777570    5.7962531    5.4710407    1.9229831 *
  29 H       6.1816960    5.4799951    8.4287906    5.8489796    7.9570078  
  30 H       4.9274043    4.8516631    7.0881681    5.9058803    6.8273554  
  31 H       0.0000000    3.2941983    2.4584221 *  5.2504458    5.9313722  
  32 H       3.2941983    0.0000000    4.4502527    2.3722609 *  4.9853213  
  33 H       2.4584221 *  4.4502527    0.0000000    6.5066786    5.5776229  
  34 H       5.2504458    2.3722609 *  6.5066786    0.0000000    6.8859894  
  35 H       5.9313722    4.9853213    5.5776229    6.8859894    0.0000000  
  36 H       7.0502307    6.0206760    9.3781639    5.5989648    9.4179091  
  37 H       4.8081011    5.8163180    2.5340500 *  7.8543491    4.9644848  
  38 H       7.2120688    4.6737552    8.7853077    2.4596796 *  9.0349375  
  39 H       4.8421493    4.9319333    5.9058369    6.8713594    3.9185687  
  40 H       6.2133879    5.4281531    7.0804910    7.0818448    3.4718832  
  41 H       5.5987933    5.4679384    5.9544730    7.5110170    2.5718433 *
  42 H       5.9552832    6.5181715    8.3427668    7.1835582    9.1568879  
  43 H       4.3207697    5.2180384    6.7555125    6.0729259    8.3223249  
  44 H       5.7189114    5.8306085    8.1721614    6.0143730    9.3508480  
  45 H       7.1579411    6.5928882    5.9465477    8.4623140    2.4010265 *
  46 H       8.7328547    7.1759617   10.9513886    5.9302644   11.0023373  
  47 H       6.7454495    6.9453734    4.8153910    8.8961005    4.2459525  
  48 H       8.8239947    6.6797373   10.7299997    4.7652934   10.8662937  

               36 H         37 H         38 H         39 H         40 H     

   1 N       7.3671251    4.5411850    7.3783867    2.7474820 *  3.4169019  
   2 N       2.8001425 *  8.5262374    4.6294694    4.6199808    5.2773657  
   3 C       6.6111552    4.8251598    6.8686593    3.0610991    4.1621221  
   4 C       4.2011726    7.1339856    4.8889495    3.9557831    4.7175072  
   5 C       8.6785378    3.4187894    8.2670660    3.6966532    4.2015378  
   6 C       2.1943852 *  9.4596494    3.4428346    5.9313033    6.3565600  
   7 C       5.1980495    6.2755737    6.1880560    2.9398447 *  4.0634459  
   8 C       6.9581051    5.8449534    7.2818767    2.1736482 *  2.1549691 *
   9 C       2.5508052 *  9.2831368    5.8841298    4.4935833    5.2794568  
  10 C       9.3094786    2.1697610 *  8.6890296    4.7187852    5.5053151  
  11 C       3.4199681    9.1675811    2.1711488 *  6.5578763    6.8520389  
  12 C       7.3450830    4.1061098    7.3227376    4.2083586    5.4529337  
  13 C       4.9418849    6.7843328    4.0268066    4.9013330    5.4077585  
  14 C       8.6937252    2.7235560 *  8.2377880    4.9148908    6.0185279  
  15 C       4.6723356    7.8398748    2.6959146 *  6.0776485    6.3949038  
  16 C       9.5687177    3.8855482    9.0202430    4.1596891    4.1470856  
  17 C       1.0852219 * 10.8394727    3.8713589    6.8990600    7.2638301  
  18 C      10.6951027    1.0877177 *  9.7865336    5.8661394    6.5035791  
  19 C       3.8666290   10.2930730    1.0876048 *  7.9063903    8.0730021  
  20 C       7.3316453    6.5075958    8.4754488    1.0938728 *  1.0944299 *
  21 C       2.8147012 *  9.7504784    6.4617730    5.4806115    6.5398563  
  22 C      10.9124554    3.3978241   10.0741340    5.4253539    5.4073106  
  23 C       2.1107655 * 11.8004370    3.3834040    8.1877853    8.4217945  
  24 C      11.4219727    2.1461329 * 10.4246408    6.1611613    6.4611052  
  25 C       3.3693479   11.5550179    2.1405288 *  8.6317676    8.7830689  
  26 H       5.2060852    6.7724358    6.9987966    2.5021767 *  3.9059885  
  27 H       5.9525176    6.6076431    6.3607385    2.5266416 *  2.4596554 *
  28 H       7.5993640    5.9624497    7.4094928    3.0928551    2.4969570 *
  29 H       2.0715617 * 10.2003723    6.0063594    4.9783680    5.4730315  
  30 H       3.5731247    8.8266452    6.7068207    3.5366693    4.4450208  
  31 H       7.0502307    4.8081011    7.2120688    4.8421493    6.2133879  
  32 H       6.0206760    5.8163180    4.6737552    4.9319333    5.4281531  
  33 H       9.3781639    2.5340500 *  8.7853077    5.9058369    7.0804910  
  34 H       5.5989648    7.8543491    2.4596796 *  6.8713594    7.0818448  
  35 H       9.4179091    4.9644848    9.0349375    3.9185687    3.4718832  
  36 H       0.0000000   11.3098864    4.9537132    6.8626304    7.2930782  
  37 H      11.3098864    0.0000000   10.2923910    6.7409512    7.5093147  
  38 H       4.9537132   10.2923910    0.0000000    8.5284233    8.6263374  
  39 H       6.8626304    6.7409512    8.5284233    0.0000000    1.7700862 *
  40 H       7.2930782    7.5093147    8.6263374    1.7700862 *  0.0000000  
  41 H       8.3979021    6.0893017    9.4007763    1.7639023 *  1.7703496 *
  42 H       3.3026494   10.4411537    7.4546306    5.7417739    6.8185818  
  43 H       3.7597025    8.9813746    6.7213368    5.3240696    6.6012560  
  44 H       2.3273663 * 10.3748340    5.9911734    6.4569006    7.4255354  
  45 H      11.6601816    4.2892580   10.7666336    6.0376591    5.7524207  
  46 H       2.4110202 * 12.8431060    4.2787492    8.9751363    9.1883215  
  47 H      12.4956060    2.4648274 * 11.3403924    7.1841955    7.4373119  
  48 H       4.2549844   12.4362419    2.4627441 *  9.6861623    9.7705883  

               41 H         42 H         43 H         44 H         45 H     

   1 N       2.7511489 *  6.8467408    5.7745361    6.9168303    4.5335604  
   2 N       6.0354906    3.4095760    2.7387682 *  2.7641281 *  9.0055938  
   3 C       3.6839623    5.8934440    4.6331864    5.8659535    5.7337722  
   4 C       5.1517251    4.3520615    3.2739668    3.8707169    7.7347424  
   5 C       3.0935223    8.1119650    6.9594052    8.1733113    3.4026235  
   6 C       7.2448264    4.1260702    3.6348760    2.9729264 *  9.9087105  
   7 C       4.1469471    4.5294413    3.3967201    4.4984280    6.9581913  
   8 C       2.1699974 *  6.7271334    5.9862299    6.9029046    4.8074904  
   9 C       6.1356142    2.1524228 *  2.1602612 *  2.1888496 *  9.6818721  
  10 C       4.2725860    8.5497439    7.1980400    8.5275453    3.8954953  
  11 C       7.6297430    5.4647896    4.7156317    4.1877603    9.6598433  
  12 C       4.7148301    6.4056264    4.9050264    6.2709628    6.0875996  
  13 C       5.7323981    5.6671899    4.4791878    4.8792728    7.4468220  
  14 C       4.9524211    7.7681748    6.2707871    7.6557275    5.2963264  
  15 C       6.9101232    6.1211484    5.0636682    5.0207854    8.4283987  
  16 C       2.9853461 *  9.1559811    8.1453505    9.2848742    2.1537544 *
  17 C       8.3153070    4.0212388    4.0377158    2.7757128 * 11.2233060  
  18 C       5.1090881    9.9307388    8.5637158    9.9136222    3.4025410  
  19 C       8.9321580    6.4369066    5.8292010    4.9924465   10.7471950  
  20 C       1.0941912 *  6.6166370    6.1505304    7.1723868    5.2119222  
  21 C       7.1796666    1.0948095 *  1.0956337 *  1.0931997 * 10.6883287  
  22 C       4.1001285   10.4462495    9.3616319   10.5602353    1.0863534 *
  23 C       9.5200372    5.2672787    5.2941916    3.8856336   12.1660212  
  24 C       5.0374412   10.7934098    9.5460416   10.8415209    2.1522903 *
  25 C       9.7961632    6.3544163    6.0727222    4.8701706   11.9505984  
  26 H       4.0109958    3.9236610    3.0054150    4.2986450    7.3939635  
  27 H       3.0644245    6.0645653    5.4007812    6.1017979    5.7780004  
  28 H       2.5724938 *  7.6898042    6.9702147    7.7700897    4.2532501  
  29 H       6.5873137    2.4741765 *  3.0769127    2.5922458 * 10.2619453  
  30 H       5.2432569    2.4463289 *  2.4797568 *  3.0686584    9.0536222  
  31 H       5.5987933    5.9552832    4.3207697    5.7189114    7.1579411  
  32 H       5.4679384    6.5181715    5.2180384    5.8306085    6.5928882  
  33 H       5.9544730    8.3427668    6.7555125    8.1721614    5.9465477  
  34 H       7.5110170    7.1835582    6.0729259    6.0143730    8.4623140  
  35 H       2.5718433 *  9.1568879    8.3223249    9.3508480    2.4010265 *
  36 H       8.3979021    3.3026494    3.7597025    2.3273663 * 11.6601816  
  37 H       6.0893017   10.4411537    8.9813746   10.3748340    4.2892580  
  38 H       9.4007763    7.4546306    6.7213368    5.9911734   10.7666336  
  39 H       1.7639023 *  5.7417739    5.3240696    6.4569006    6.0376591  
  40 H       1.7703496 *  6.8185818    6.6012560    7.4255354    5.7524207  
  41 H       0.0000000    7.4954461    6.9705798    8.1181125    4.5266549  
  42 H       7.4954461    0.0000000    1.7688537 *  1.7674926 * 11.2844325  
  43 H       6.9705798    1.7688537 *  0.0000000    1.7621655 * 10.2845059  
  44 H       8.1181125    1.7674926 *  1.7621655 *  0.0000000   11.4380285  
  45 H       4.5266549   11.2844325   10.2845059   11.4380285    0.0000000  
  46 H      10.3641226    5.5733261    5.8685647    4.2792372   13.1723687  
  47 H       5.9767354   11.8507381   10.5812759   11.8956456    2.4763938 *
  48 H      10.8107374    7.3189502    7.0846648    5.8023098   12.8134265  

               46 H         47 H         48 H     

   1 N       9.0936801    5.2251196    9.1242585  
   2 N       4.6562706    9.7120041    5.3543779  
   3 C       8.3912823    6.0444412    8.5197644  
   4 C       5.8898092    8.3261539    6.1716074  
   5 C      10.3305355    3.8786669   10.1874057  
   6 C       3.4284547   10.6309221    3.9221120  
   7 C       7.1056275    7.4800280    7.5153785  
   8 C       8.6810565    6.0962897    8.8371459  
   9 C       4.8694528   10.4599843    6.1610055  
  10 C      10.9295560    3.4125620   10.6987640  
  11 C       3.8725827   10.3002579    3.4078985  
  12 C       9.0484893    5.8217591    9.0656842  
  13 C       6.1235115    7.9366195    5.8018585  
  14 C      10.3236457    4.6106447   10.1622483  
  15 C       5.3349048    8.9487951    4.6228529  
  16 C      11.1654187    3.4000276   10.9614994  
  17 C       2.1558637 * 12.0150317    3.4030116  
  18 C      12.2590109    2.1542670 * 11.9016611  
  19 C       3.3891646   11.3918015    2.1518412 *
  20 C       9.2841208    6.6308754    9.7824458  
  21 C       5.0536550   11.1990972    6.5292872  
  22 C      12.4608894    2.1528865 * 12.1301669  
  23 C       1.0865089 * 12.9567447    2.1505368 *
  24 C      12.9632597    1.0863577 * 12.5641659  
  25 C       2.1484596 * 12.6738105    1.0857406 *
  26 H       7.3423872    7.9602925    8.0756438  
  27 H       7.6125958    7.0256144    7.7988830  
  28 H       9.1305566    5.8372362    9.0762132  
  29 H       4.3951583   11.2302632    5.9453210  
  30 H       5.9061408    9.8985389    7.1580775  
  31 H       8.7328547    6.7454495    8.8239947  
  32 H       7.1759617    6.9453734    6.6797373  
  33 H      10.9513886    4.8153910   10.7299997  
  34 H       5.9302644    8.8961005    4.7652934  
  35 H      11.0023373    4.2459525   10.8662937  
  36 H       2.4110202 * 12.4956060    4.2549844  
  37 H      12.8431060    2.4648274 * 12.4362419  
  38 H       4.2787492   11.3403924    2.4627441 *
  39 H       8.9751363    7.1841955    9.6861623  
  40 H       9.1883215    7.4373119    9.7705883  
  41 H      10.3641226    5.9767354   10.8107374  
  42 H       5.5733261   11.8507381    7.3189502  
  43 H       5.8685647   10.5812759    7.0846648  
  44 H       4.2792372   11.8956456    5.8023098  
  45 H      13.1723687    2.4763938 * 12.8134265  
  46 H       0.0000000   14.0049334    2.4765905 *
  47 H      14.0049334    0.0000000   13.5328373  
  48 H       2.4765905 * 13.5328373    0.0000000  

  * ... LESS THAN  3.000


     ATOMIC BASIS SET
     ----------------
 THE CONTRACTED PRIMITIVE FUNCTIONS HAVE BEEN UNNORMALIZED
 THE CONTRACTED BASIS FUNCTIONS ARE NOW NORMALIZED TO UNITY

  SHELL TYPE  PRIMITIVE        EXPONENT          CONTRACTION COEFFICIENT(S)

 N         

      1   S       1          4173.5114600    0.001834772160
      1   S       2           627.4579110    0.013994627002
      1   S       3           142.9020930    0.068586551812
      1   S       4            40.2343293    0.232240873040
      1   S       5            12.8202129    0.469069948082
      1   S       6             4.3904370    0.360455199063

      2   L       7            11.6263619   -0.114961181702    0.067579743878
      2   L       8             2.7162798   -0.169117478561    0.323907295893
      2   L       9             0.7722184    1.145851947027    0.740895139755

      3   L      10             0.2120315    1.000000000000    1.000000000000

      4   L      11             0.0639000    1.000000000000    1.000000000000

 N         

      5   S      12          4173.5114600    0.001834772160
      5   S      13           627.4579110    0.013994627002
      5   S      14           142.9020930    0.068586551812
      5   S      15            40.2343293    0.232240873040
      5   S      16            12.8202129    0.469069948082
      5   S      17             4.3904370    0.360455199063

      6   L      18            11.6263619   -0.114961181702    0.067579743878
      6   L      19             2.7162798   -0.169117478561    0.323907295893
      6   L      20             0.7722184    1.145851947027    0.740895139755

      7   L      21             0.2120315    1.000000000000    1.000000000000

      8   L      22             0.0639000    1.000000000000    1.000000000000

 C         

      9   S      23          3047.5248800    0.001834737132
      9   S      24           457.3695180    0.014037322813
      9   S      25           103.9486850    0.068842622264
      9   S      26            29.2101553    0.232184443216
      9   S      27             9.2866630    0.467941348435
      9   S      28             3.1639270    0.362311985337

     10   L      29             7.8682723   -0.119332419775    0.068999066591
     10   L      30             1.8812885   -0.160854151696    0.316423960957
     10   L      31             0.5442493    1.143456437840    0.744308290898

     11   L      32             0.1687145    1.000000000000    1.000000000000

     12   L      33             0.0438000    1.000000000000    1.000000000000

 C         

     13   S      34          3047.5248800    0.001834737132
     13   S      35           457.3695180    0.014037322813
     13   S      36           103.9486850    0.068842622264
     13   S      37            29.2101553    0.232184443216
     13   S      38             9.2866630    0.467941348435
     13   S      39             3.1639270    0.362311985337

     14   L      40             7.8682723   -0.119332419775    0.068999066591
     14   L      41             1.8812885   -0.160854151696    0.316423960957
     14   L      42             0.5442493    1.143456437840    0.744308290898

     15   L      43             0.1687145    1.000000000000    1.000000000000

     16   L      44             0.0438000    1.000000000000    1.000000000000

 C         

     17   S      45          3047.5248800    0.001834737132
     17   S      46           457.3695180    0.014037322813
     17   S      47           103.9486850    0.068842622264
     17   S      48            29.2101553    0.232184443216
     17   S      49             9.2866630    0.467941348435
     17   S      50             3.1639270    0.362311985337

     18   L      51             7.8682723   -0.119332419775    0.068999066591
     18   L      52             1.8812885   -0.160854151696    0.316423960957
     18   L      53             0.5442493    1.143456437840    0.744308290898

     19   L      54             0.1687145    1.000000000000    1.000000000000

     20   L      55             0.0438000    1.000000000000    1.000000000000

 C         

     21   S      56          3047.5248800    0.001834737132
     21   S      57           457.3695180    0.014037322813
     21   S      58           103.9486850    0.068842622264
     21   S      59            29.2101553    0.232184443216
     21   S      60             9.2866630    0.467941348435
     21   S      61             3.1639270    0.362311985337

     22   L      62             7.8682723   -0.119332419775    0.068999066591
     22   L      63             1.8812885   -0.160854151696    0.316423960957
     22   L      64             0.5442493    1.143456437840    0.744308290898

     23   L      65             0.1687145    1.000000000000    1.000000000000

     24   L      66             0.0438000    1.000000000000    1.000000000000

 C         

     25   S      67          3047.5248800    0.001834737132
     25   S      68           457.3695180    0.014037322813
     25   S      69           103.9486850    0.068842622264
     25   S      70            29.2101553    0.232184443216
     25   S      71             9.2866630    0.467941348435
     25   S      72             3.1639270    0.362311985337

     26   L      73             7.8682723   -0.119332419775    0.068999066591
     26   L      74             1.8812885   -0.160854151696    0.316423960957
     26   L      75             0.5442493    1.143456437840    0.744308290898

     27   L      76             0.1687145    1.000000000000    1.000000000000

     28   L      77             0.0438000    1.000000000000    1.000000000000

 C         

     29   S      78          3047.5248800    0.001834737132
     29   S      79           457.3695180    0.014037322813
     29   S      80           103.9486850    0.068842622264
     29   S      81            29.2101553    0.232184443216
     29   S      82             9.2866630    0.467941348435
     29   S      83             3.1639270    0.362311985337

     30   L      84             7.8682723   -0.119332419775    0.068999066591
     30   L      85             1.8812885   -0.160854151696    0.316423960957
     30   L      86             0.5442493    1.143456437840    0.744308290898

     31   L      87             0.1687145    1.000000000000    1.000000000000

     32   L      88             0.0438000    1.000000000000    1.000000000000

 C         

     33   S      89          3047.5248800    0.001834737132
     33   S      90           457.3695180    0.014037322813
     33   S      91           103.9486850    0.068842622264
     33   S      92            29.2101553    0.232184443216
     33   S      93             9.2866630    0.467941348435
     33   S      94             3.1639270    0.362311985337

     34   L      95             7.8682723   -0.119332419775    0.068999066591
     34   L      96             1.8812885   -0.160854151696    0.316423960957
     34   L      97             0.5442493    1.143456437840    0.744308290898

     35   L      98             0.1687145    1.000000000000    1.000000000000

     36   L      99             0.0438000    1.000000000000    1.000000000000

 C         

     37   S     100          3047.5248800    0.001834737132
     37   S     101           457.3695180    0.014037322813
     37   S     102           103.9486850    0.068842622264
     37   S     103            29.2101553    0.232184443216
     37   S     104             9.2866630    0.467941348435
     37   S     105             3.1639270    0.362311985337

     38   L     106             7.8682723   -0.119332419775    0.068999066591
     38   L     107             1.8812885   -0.160854151696    0.316423960957
     38   L     108             0.5442493    1.143456437840    0.744308290898

     39   L     109             0.1687145    1.000000000000    1.000000000000

     40   L     110             0.0438000    1.000000000000    1.000000000000

 C         

     41   S     111          3047.5248800    0.001834737132
     41   S     112           457.3695180    0.014037322813
     41   S     113           103.9486850    0.068842622264
     41   S     114            29.2101553    0.232184443216
     41   S     115             9.2866630    0.467941348435
     41   S     116             3.1639270    0.362311985337

     42   L     117             7.8682723   -0.119332419775    0.068999066591
     42   L     118             1.8812885   -0.160854151696    0.316423960957
     42   L     119             0.5442493    1.143456437840    0.744308290898

     43   L     120             0.1687145    1.000000000000    1.000000000000

     44   L     121             0.0438000    1.000000000000    1.000000000000

 C         

     45   S     122          3047.5248800    0.001834737132
     45   S     123           457.3695180    0.014037322813
     45   S     124           103.9486850    0.068842622264
     45   S     125            29.2101553    0.232184443216
     45   S     126             9.2866630    0.467941348435
     45   S     127             3.1639270    0.362311985337

     46   L     128             7.8682723   -0.119332419775    0.068999066591
     46   L     129             1.8812885   -0.160854151696    0.316423960957
     46   L     130             0.5442493    1.143456437840    0.744308290898

     47   L     131             0.1687145    1.000000000000    1.000000000000

     48   L     132             0.0438000    1.000000000000    1.000000000000

 C         

     49   S     133          3047.5248800    0.001834737132
     49   S     134           457.3695180    0.014037322813
     49   S     135           103.9486850    0.068842622264
     49   S     136            29.2101553    0.232184443216
     49   S     137             9.2866630    0.467941348435
     49   S     138             3.1639270    0.362311985337

     50   L     139             7.8682723   -0.119332419775    0.068999066591
     50   L     140             1.8812885   -0.160854151696    0.316423960957
     50   L     141             0.5442493    1.143456437840    0.744308290898

     51   L     142             0.1687145    1.000000000000    1.000000000000

     52   L     143             0.0438000    1.000000000000    1.000000000000

 C         

     53   S     144          3047.5248800    0.001834737132
     53   S     145           457.3695180    0.014037322813
     53   S     146           103.9486850    0.068842622264
     53   S     147            29.2101553    0.232184443216
     53   S     148             9.2866630    0.467941348435
     53   S     149             3.1639270    0.362311985337

     54   L     150             7.8682723   -0.119332419775    0.068999066591
     54   L     151             1.8812885   -0.160854151696    0.316423960957
     54   L     152             0.5442493    1.143456437840    0.744308290898

     55   L     153             0.1687145    1.000000000000    1.000000000000

     56   L     154             0.0438000    1.000000000000    1.000000000000

 C         

     57   S     155          3047.5248800    0.001834737132
     57   S     156           457.3695180    0.014037322813
     57   S     157           103.9486850    0.068842622264
     57   S     158            29.2101553    0.232184443216
     57   S     159             9.2866630    0.467941348435
     57   S     160             3.1639270    0.362311985337

     58   L     161             7.8682723   -0.119332419775    0.068999066591
     58   L     162             1.8812885   -0.160854151696    0.316423960957
     58   L     163             0.5442493    1.143456437840    0.744308290898

     59   L     164             0.1687145    1.000000000000    1.000000000000

     60   L     165             0.0438000    1.000000000000    1.000000000000

 C         

     61   S     166          3047.5248800    0.001834737132
     61   S     167           457.3695180    0.014037322813
     61   S     168           103.9486850    0.068842622264
     61   S     169            29.2101553    0.232184443216
     61   S     170             9.2866630    0.467941348435
     61   S     171             3.1639270    0.362311985337

     62   L     172             7.8682723   -0.119332419775    0.068999066591
     62   L     173             1.8812885   -0.160854151696    0.316423960957
     62   L     174             0.5442493    1.143456437840    0.744308290898

     63   L     175             0.1687145    1.000000000000    1.000000000000

     64   L     176             0.0438000    1.000000000000    1.000000000000

 C         

     65   S     177          3047.5248800    0.001834737132
     65   S     178           457.3695180    0.014037322813
     65   S     179           103.9486850    0.068842622264
     65   S     180            29.2101553    0.232184443216
     65   S     181             9.2866630    0.467941348435
     65   S     182             3.1639270    0.362311985337

     66   L     183             7.8682723   -0.119332419775    0.068999066591
     66   L     184             1.8812885   -0.160854151696    0.316423960957
     66   L     185             0.5442493    1.143456437840    0.744308290898

     67   L     186             0.1687145    1.000000000000    1.000000000000

     68   L     187             0.0438000    1.000000000000    1.000000000000

 C         

     69   S     188          3047.5248800    0.001834737132
     69   S     189           457.3695180    0.014037322813
     69   S     190           103.9486850    0.068842622264
     69   S     191            29.2101553    0.232184443216
     69   S     192             9.2866630    0.467941348435
     69   S     193             3.1639270    0.362311985337

     70   L     194             7.8682723   -0.119332419775    0.068999066591
     70   L     195             1.8812885   -0.160854151696    0.316423960957
     70   L     196             0.5442493    1.143456437840    0.744308290898

     71   L     197             0.1687145    1.000000000000    1.000000000000

     72   L     198             0.0438000    1.000000000000    1.000000000000

 C         

     73   S     199          3047.5248800    0.001834737132
     73   S     200           457.3695180    0.014037322813
     73   S     201           103.9486850    0.068842622264
     73   S     202            29.2101553    0.232184443216
     73   S     203             9.2866630    0.467941348435
     73   S     204             3.1639270    0.362311985337

     74   L     205             7.8682723   -0.119332419775    0.068999066591
     74   L     206             1.8812885   -0.160854151696    0.316423960957
     74   L     207             0.5442493    1.143456437840    0.744308290898

     75   L     208             0.1687145    1.000000000000    1.000000000000

     76   L     209             0.0438000    1.000000000000    1.000000000000

 C         

     77   S     210          3047.5248800    0.001834737132
     77   S     211           457.3695180    0.014037322813
     77   S     212           103.9486850    0.068842622264
     77   S     213            29.2101553    0.232184443216
     77   S     214             9.2866630    0.467941348435
     77   S     215             3.1639270    0.362311985337

     78   L     216             7.8682723   -0.119332419775    0.068999066591
     78   L     217             1.8812885   -0.160854151696    0.316423960957
     78   L     218             0.5442493    1.143456437840    0.744308290898

     79   L     219             0.1687145    1.000000000000    1.000000000000

     80   L     220             0.0438000    1.000000000000    1.000000000000

 C         

     81   S     221          3047.5248800    0.001834737132
     81   S     222           457.3695180    0.014037322813
     81   S     223           103.9486850    0.068842622264
     81   S     224            29.2101553    0.232184443216
     81   S     225             9.2866630    0.467941348435
     81   S     226             3.1639270    0.362311985337

     82   L     227             7.8682723   -0.119332419775    0.068999066591
     82   L     228             1.8812885   -0.160854151696    0.316423960957
     82   L     229             0.5442493    1.143456437840    0.744308290898

     83   L     230             0.1687145    1.000000000000    1.000000000000

     84   L     231             0.0438000    1.000000000000    1.000000000000

 C         

     85   S     232          3047.5248800    0.001834737132
     85   S     233           457.3695180    0.014037322813
     85   S     234           103.9486850    0.068842622264
     85   S     235            29.2101553    0.232184443216
     85   S     236             9.2866630    0.467941348435
     85   S     237             3.1639270    0.362311985337

     86   L     238             7.8682723   -0.119332419775    0.068999066591
     86   L     239             1.8812885   -0.160854151696    0.316423960957
     86   L     240             0.5442493    1.143456437840    0.744308290898

     87   L     241             0.1687145    1.000000000000    1.000000000000

     88   L     242             0.0438000    1.000000000000    1.000000000000

 C         

     89   S     243          3047.5248800    0.001834737132
     89   S     244           457.3695180    0.014037322813
     89   S     245           103.9486850    0.068842622264
     89   S     246            29.2101553    0.232184443216
     89   S     247             9.2866630    0.467941348435
     89   S     248             3.1639270    0.362311985337

     90   L     249             7.8682723   -0.119332419775    0.068999066591
     90   L     250             1.8812885   -0.160854151696    0.316423960957
     90   L     251             0.5442493    1.143456437840    0.744308290898

     91   L     252             0.1687145    1.000000000000    1.000000000000

     92   L     253             0.0438000    1.000000000000    1.000000000000

 C         

     93   S     254          3047.5248800    0.001834737132
     93   S     255           457.3695180    0.014037322813
     93   S     256           103.9486850    0.068842622264
     93   S     257            29.2101553    0.232184443216
     93   S     258             9.2866630    0.467941348435
     93   S     259             3.1639270    0.362311985337

     94   L     260             7.8682723   -0.119332419775    0.068999066591
     94   L     261             1.8812885   -0.160854151696    0.316423960957
     94   L     262             0.5442493    1.143456437840    0.744308290898

     95   L     263             0.1687145    1.000000000000    1.000000000000

     96   L     264             0.0438000    1.000000000000    1.000000000000

 C         

     97   S     265          3047.5248800    0.001834737132
     97   S     266           457.3695180    0.014037322813
     97   S     267           103.9486850    0.068842622264
     97   S     268            29.2101553    0.232184443216
     97   S     269             9.2866630    0.467941348435
     97   S     270             3.1639270    0.362311985337

     98   L     271             7.8682723   -0.119332419775    0.068999066591
     98   L     272             1.8812885   -0.160854151696    0.316423960957
     98   L     273             0.5442493    1.143456437840    0.744308290898

     99   L     274             0.1687145    1.000000000000    1.000000000000

    100   L     275             0.0438000    1.000000000000    1.000000000000

 H         

    101   S     276            18.7311370    0.033494604338
    101   S     277             2.8253944    0.234726953484
    101   S     278             0.6401217    0.813757326146

    102   S     279             0.1612778    1.000000000000

    103   P     280             1.1000000    1.000000000000

 H         

    104   S     281            18.7311370    0.033494604338
    104   S     282             2.8253944    0.234726953484
    104   S     283             0.6401217    0.813757326146

    105   S     284             0.1612778    1.000000000000

    106   P     285             1.1000000    1.000000000000

 H         

    107   S     286            18.7311370    0.033494604338
    107   S     287             2.8253944    0.234726953484
    107   S     288             0.6401217    0.813757326146

    108   S     289             0.1612778    1.000000000000

    109   P     290             1.1000000    1.000000000000

 H         

    110   S     291            18.7311370    0.033494604338
    110   S     292             2.8253944    0.234726953484
    110   S     293             0.6401217    0.813757326146

    111   S     294             0.1612778    1.000000000000

    112   P     295             1.1000000    1.000000000000

 H         

    113   S     296            18.7311370    0.033494604338
    113   S     297             2.8253944    0.234726953484
    113   S     298             0.6401217    0.813757326146

    114   S     299             0.1612778    1.000000000000

    115   P     300             1.1000000    1.000000000000

 H         

    116   S     301            18.7311370    0.033494604338
    116   S     302             2.8253944    0.234726953484
    116   S     303             0.6401217    0.813757326146

    117   S     304             0.1612778    1.000000000000

    118   P     305             1.1000000    1.000000000000

 H         

    119   S     306            18.7311370    0.033494604338
    119   S     307             2.8253944    0.234726953484
    119   S     308             0.6401217    0.813757326146

    120   S     309             0.1612778    1.000000000000

    121   P     310             1.1000000    1.000000000000

 H         

    122   S     311            18.7311370    0.033494604338
    122   S     312             2.8253944    0.234726953484
    122   S     313             0.6401217    0.813757326146

    123   S     314             0.1612778    1.000000000000

    124   P     315             1.1000000    1.000000000000

 H         

    125   S     316            18.7311370    0.033494604338
    125   S     317             2.8253944    0.234726953484
    125   S     318             0.6401217    0.813757326146

    126   S     319             0.1612778    1.000000000000

    127   P     320             1.1000000    1.000000000000

 H         

    128   S     321            18.7311370    0.033494604338
    128   S     322             2.8253944    0.234726953484
    128   S     323             0.6401217    0.813757326146

    129   S     324             0.1612778    1.000000000000

    130   P     325             1.1000000    1.000000000000

 H         

    131   S     326            18.7311370    0.033494604338
    131   S     327             2.8253944    0.234726953484
    131   S     328             0.6401217    0.813757326146

    132   S     329             0.1612778    1.000000000000

    133   P     330             1.1000000    1.000000000000

 H         

    134   S     331            18.7311370    0.033494604338
    134   S     332             2.8253944    0.234726953484
    134   S     333             0.6401217    0.813757326146

    135   S     334             0.1612778    1.000000000000

    136   P     335             1.1000000    1.000000000000

 H         

    137   S     336            18.7311370    0.033494604338
    137   S     337             2.8253944    0.234726953484
    137   S     338             0.6401217    0.813757326146

    138   S     339             0.1612778    1.000000000000

    139   P     340             1.1000000    1.000000000000

 H         

    140   S     341            18.7311370    0.033494604338
    140   S     342             2.8253944    0.234726953484
    140   S     343             0.6401217    0.813757326146

    141   S     344             0.1612778    1.000000000000

    142   P     345             1.1000000    1.000000000000

 H         

    143   S     346            18.7311370    0.033494604338
    143   S     347             2.8253944    0.234726953484
    143   S     348             0.6401217    0.813757326146

    144   S     349             0.1612778    1.000000000000

    145   P     350             1.1000000    1.000000000000

 H         

    146   S     351            18.7311370    0.033494604338
    146   S     352             2.8253944    0.234726953484
    146   S     353             0.6401217    0.813757326146

    147   S     354             0.1612778    1.000000000000

    148   P     355             1.1000000    1.000000000000

 H         

    149   S     356            18.7311370    0.033494604338
    149   S     357             2.8253944    0.234726953484
    149   S     358             0.6401217    0.813757326146

    150   S     359             0.1612778    1.000000000000

    151   P     360             1.1000000    1.000000000000

 H         

    152   S     361            18.7311370    0.033494604338
    152   S     362             2.8253944    0.234726953484
    152   S     363             0.6401217    0.813757326146

    153   S     364             0.1612778    1.000000000000

    154   P     365             1.1000000    1.000000000000

 H         

    155   S     366            18.7311370    0.033494604338
    155   S     367             2.8253944    0.234726953484
    155   S     368             0.6401217    0.813757326146

    156   S     369             0.1612778    1.000000000000

    157   P     370             1.1000000    1.000000000000

 H         

    158   S     371            18.7311370    0.033494604338
    158   S     372             2.8253944    0.234726953484
    158   S     373             0.6401217    0.813757326146

    159   S     374             0.1612778    1.000000000000

    160   P     375             1.1000000    1.000000000000

 H         

    161   S     376            18.7311370    0.033494604338
    161   S     377             2.8253944    0.234726953484
    161   S     378             0.6401217    0.813757326146

    162   S     379             0.1612778    1.000000000000

    163   P     380             1.1000000    1.000000000000

 H         

    164   S     381            18.7311370    0.033494604338
    164   S     382             2.8253944    0.234726953484
    164   S     383             0.6401217    0.813757326146

    165   S     384             0.1612778    1.000000000000

    166   P     385             1.1000000    1.000000000000

 H         

    167   S     386            18.7311370    0.033494604338
    167   S     387             2.8253944    0.234726953484
    167   S     388             0.6401217    0.813757326146

    168   S     389             0.1612778    1.000000000000

    169   P     390             1.1000000    1.000000000000

 TOTAL NUMBER OF BASIS SET SHELLS             =  169
 NUMBER OF CARTESIAN GAUSSIAN BASIS FUNCTIONS =  440
 NOTE: THIS RUN WILL RESTRICT THE MO VARIATION SPACE TO SPHERICAL HARMONICS.
 THE NUMBER OF ORBITALS KEPT IN THE VARIATIONAL SPACE WILL BE PRINTED LATER.
 NUMBER OF ELECTRONS                          =  174
 CHARGE OF MOLECULE                           =    1
 SPIN MULTIPLICITY                            =    1
 NUMBER OF OCCUPIED ORBITALS (ALPHA)          =   87
 NUMBER OF OCCUPIED ORBITALS (BETA )          =   87
 TOTAL NUMBER OF ATOMS                        =   48
 THE NUCLEAR REPULSION ENERGY IS     2059.7202805063

 SELECTED MURRAY-HANDY-LAMING RADIAL GRID

 LEGACY BECKE'S FUZZY CELL METHOD

 SELECTED ORIGINAL BECKE'S PARTITION FUNCTION

     LEBEDEV GRID-BASED DFT OPTIONS
     ------------------------------
     DFTTYP=B3LYP   
     NRAD  =      96     NLEB  =     302
     NRAD0 =      24     NLEB0 =     110
     SWOFF =    5.00E-03 (PURE SCF -> DFT)
     SWITCH=    3.00E-04 (COARSE -> TIGHT GRID)
     THRESH=    0.00E+00 GTHRE=    1.00E+00

 GRIMME'S EMPIRICAL DISPERSION CORRECTION= F

     $CONTRL OPTIONS
     ---------------
 SCFTYP=RHF          RUNTYP=ENERGY       EXETYP=RUN     
 MPLEVL=       0     CITYP =NONE         CCTYP =NONE         VBTYP =NONE    
 DFTTYP=B3LYP        TDDFT =EXCITE  
 MULT  =       1     ICHARG=       1     NZVAR =       0     COORD =UNIQUE  
 PP    =NONE         RELWFN=NONE         LOCAL =NONE         NUMGRD=       F
 ISPHER=       1     NOSYM =       0     MAXIT =     200     UNITS =ANGS    
 PLTORB=       F     MOLPLT=       F     AIMPAC=       F     FRIEND=        
[...]
    STATE NUMBER   4  ENERGY =    3.539546 EV
    STATE NUMBER   5  ENERGY =    3.839577 EV
    STATE NUMBER   6  ENERGY =    4.271871 EV
    STATE NUMBER   7  ENERGY =    4.344064 EV
    STATE NUMBER   8  ENERGY =    4.411662 EV
    STATE NUMBER   9  ENERGY =    4.461228 EV
    STATE NUMBER  10  ENERGY =    4.705943 EV
    MAX ERROR =  5.214E-05 / 1.000E-07
 ITERATION #                      6
    CURRENT VECTORS   91 TO 106 (  16 VECTORS)
    STATE NUMBER   1  ENERGY =    1.873029 EV
    STATE NUMBER   2  ENERGY =    3.317661 EV
    STATE NUMBER   3  ENERGY =    3.480267 EV
    STATE NUMBER   4  ENERGY =    3.539542 EV
    STATE NUMBER   5  ENERGY =    3.839558 EV
    STATE NUMBER   6  ENERGY =    4.271869 EV
    STATE NUMBER   7  ENERGY =    4.344020 EV
    STATE NUMBER   8  ENERGY =    4.411510 EV
    STATE NUMBER   9  ENERGY =    4.461164 EV
    STATE NUMBER  10  ENERGY =    4.703996 EV
    MAX ERROR =  6.266E-06 / 1.000E-07
 ITERATION #                      7
    CURRENT VECTORS  107 TO 116 (  10 VECTORS)
    STATE NUMBER   1  ENERGY =    1.873029 EV
    STATE NUMBER   2  ENERGY =    3.317661 EV
    STATE NUMBER   3  ENERGY =    3.480267 EV
    STATE NUMBER   4  ENERGY =    3.539542 EV
    STATE NUMBER   5  ENERGY =    3.839556 EV
    STATE NUMBER   6  ENERGY =    4.271869 EV
    STATE NUMBER   7  ENERGY =    4.344014 EV
    STATE NUMBER   8  ENERGY =    4.411492 EV
    STATE NUMBER   9  ENERGY =    4.461157 EV
    STATE NUMBER  10  ENERGY =    4.703832 EV
    MAX ERROR =  5.253E-07 / 1.000E-07
 ITERATION #                      8
    CURRENT VECTORS  117 TO 120 (   4 VECTORS)
    STATE NUMBER   1  ENERGY =    1.873029 EV
    STATE NUMBER   2  ENERGY =    3.317661 EV
    STATE NUMBER   3  ENERGY =    3.480267 EV
    STATE NUMBER   4  ENERGY =    3.539542 EV
    STATE NUMBER   5  ENERGY =    3.839556 EV
    STATE NUMBER   6  ENERGY =    4.271869 EV
    STATE NUMBER   7  ENERGY =    4.344014 EV
    STATE NUMBER   8  ENERGY =    4.411490 EV
    STATE NUMBER   9  ENERGY =    4.461156 EV
    STATE NUMBER  10  ENERGY =    4.703822 EV
    MAX ERROR =  9.251E-08 / 1.000E-07
  
   ---------------------------------  
     R-TDDFT CALCULATION CONVERGED
   ---------------------------------  
 NUMBER OF USED VECTORS / MAX = 120 / 500
 NUMBER OF ITERATIONS   / MAX =   8 / 100
 NUMBER OF SINGLE EXCITATIONS = 30189
 NUMBER OF ATOMIC ORBITALS    = 440
 NUMBER OF ELECTRONS          =         174.0067321

          -------------------
          SINGLET EXCITATIONS
          -------------------

 STATE #   1  ENERGY =    1.873029 EV
 OSCILLATOR STRENGTH =    0.006665
 LAMBDA DIAGNOSTIC   =    0.199 (RYDBERG/CHARGE TRANSFER CHARACTER)
 SYMMETRY OF STATE   =    A   
                 EXCITATION  DE-EXCITATION
     OCC     VIR  AMPLITUDE      AMPLITUDE
      I       A     X(I->A)        Y(A->I)
     ---     ---   --------       --------
     84      88    0.063239      -0.000594
     87      88    0.993886      -0.003403
     87      89    0.033571       0.003782
     87      90   -0.044234       0.001446
     87      91   -0.049217       0.000641

 STATE #   2  ENERGY =    3.317661 EV
 OSCILLATOR STRENGTH =    0.178281
 LAMBDA DIAGNOSTIC   =    0.656 (RYDBERG/CHARGE TRANSFER CHARACTER)
 SYMMETRY OF STATE   =    A   
                 EXCITATION  DE-EXCITATION
     OCC     VIR  AMPLITUDE      AMPLITUDE
      I       A     X(I->A)        Y(A->I)
     ---     ---   --------       --------
     83      88   -0.036432      -0.003677
     87      88   -0.047375       0.003998
     86      89   -0.033389      -0.008028
     87      89    0.954567      -0.043976
     84      90   -0.031016       0.000417
     87      90   -0.240612      -0.018412
     84      92    0.038646       0.014444
     86      92   -0.050937      -0.017671
     87      92    0.090508       0.004391
     87      93    0.030466       0.007499
     87      94    0.045271       0.012031
     87     103    0.033255       0.002175

 STATE #   3  ENERGY =    3.480267 EV
 OSCILLATOR STRENGTH =    0.006210
 LAMBDA DIAGNOSTIC   =    0.115 (RYDBERG/CHARGE TRANSFER CHARACTER)
 SYMMETRY OF STATE   =    A   
                 EXCITATION  DE-EXCITATION
     OCC     VIR  AMPLITUDE      AMPLITUDE
      I       A     X(I->A)        Y(A->I)
     ---     ---   --------       --------
     82      88    0.049170      -0.000206
     86      88   -0.994484       0.000611
     87      88    0.032047       0.000703
     87      89    0.037061      -0.003220
     87      90    0.064367      -0.001329

 STATE #   4  ENERGY =    3.539542 EV
 OSCILLATOR STRENGTH =    0.082090
 LAMBDA DIAGNOSTIC   =    0.390 (RYDBERG/CHARGE TRANSFER CHARACTER)
 SYMMETRY OF STATE   =    A   
                 EXCITATION  DE-EXCITATION
     OCC     VIR  AMPLITUDE      AMPLITUDE
      I       A     X(I->A)        Y(A->I)
     ---     ---   --------       --------
     83      88    0.061223       0.004503
     86      88   -0.075151       0.000130
     87      88   -0.038149      -0.002490
     86      89    0.050237       0.005259
     87      89   -0.226017       0.031191
     84      90   -0.042396      -0.001232
     87      90   -0.956286       0.013864
     84      92   -0.032744      -0.010377
     86      92    0.050157       0.014769
     87      92   -0.070760      -0.001889
     87      93   -0.037056      -0.004185
     87      94   -0.039940      -0.007156
     87     103    0.032009      -0.001812

 STATE #   5  ENERGY =    3.839556 EV
 OSCILLATOR STRENGTH =    0.078985
 LAMBDA DIAGNOSTIC   =    0.759 (RYDBERG/CHARGE TRANSFER CHARACTER)
 SYMMETRY OF STATE   =    A   
                 EXCITATION  DE-EXCITATION
     OCC     VIR  AMPLITUDE      AMPLITUDE
      I       A     X(I->A)        Y(A->I)
     ---     ---   --------       --------
     80      88    0.037868       0.007665
     81      88   -0.070503      -0.014259
     85      88   -0.981763       0.056615
     83      89    0.048981       0.012323
     83      90   -0.093719      -0.026028
     81      91    0.041122       0.020633
     85      91    0.104206       0.022642

 STATE #   6  ENERGY =    4.271869 EV
 OSCILLATOR STRENGTH =    0.003786
 LAMBDA DIAGNOSTIC   =    0.150 (RYDBERG/CHARGE TRANSFER CHARACTER)
 SYMMETRY OF STATE   =    A   
                 EXCITATION  DE-EXCITATION
     OCC     VIR  AMPLITUDE      AMPLITUDE
      I       A     X(I->A)        Y(A->I)
     ---     ---   --------       --------
     84      88   -0.232454       0.001184
     87      88    0.061006       0.000515
     87      89    0.030047       0.001094
     85      90   -0.033206      -0.003465
     87      90   -0.041508       0.000369
     84      91    0.041550      -0.000191
     87      91    0.965028      -0.000445

 STATE #   7  ENERGY =    4.344014 EV
 OSCILLATOR STRENGTH =    0.216644
 LAMBDA DIAGNOSTIC   =    0.638 (RYDBERG/CHARGE TRANSFER CHARACTER)
 SYMMETRY OF STATE   =    A   
                 EXCITATION  DE-EXCITATION
     OCC     VIR  AMPLITUDE      AMPLITUDE
      I       A     X(I->A)        Y(A->I)
     ---     ---   --------       --------
     83      88   -0.332328       0.010724
     84      88    0.191758      -0.003531
     84      89   -0.050804      -0.004243
     85      89   -0.065799      -0.005707
     86      89   -0.379852      -0.002709
     87      89    0.039288      -0.000343
     85      90    0.127157       0.011706
     86      90   -0.088784       0.000111
     87      91    0.078564      -0.000188
     82      92   -0.041149      -0.008693
     86      92   -0.093669      -0.013347
     87      92   -0.803692       0.017682
     87      94    0.059501       0.002734

 STATE #   8  ENERGY =    4.411490 EV
 OSCILLATOR STRENGTH =    0.108558
 LAMBDA DIAGNOSTIC   =    0.484 (RYDBERG/CHARGE TRANSFER CHARACTER)
 SYMMETRY OF STATE   =    A   
                 EXCITATION  DE-EXCITATION
     OCC     VIR  AMPLITUDE      AMPLITUDE
      I       A     X(I->A)        Y(A->I)
     ---     ---   --------       --------
     83      88   -0.553840       0.024947
     84      88    0.590879      -0.007166
     85      89   -0.181097      -0.011367
     86      89    0.239833      -0.002211
     87      89   -0.039574       0.002482
     85      90    0.294090       0.023904
     86      90    0.094355       0.000665
     83      91   -0.035887      -0.007341
     87      91    0.159840      -0.000069
     86      92    0.075124       0.008894
     87      92    0.297734      -0.006592
     87      93   -0.098990      -0.002096
     87      94   -0.120404      -0.001061
     87      95   -0.033361       0.000089

 STATE #   9  ENERGY =    4.461156 EV
 OSCILLATOR STRENGTH =    0.034050
 LAMBDA DIAGNOSTIC   =    0.420 (RYDBERG/CHARGE TRANSFER CHARACTER)
 SYMMETRY OF STATE   =    A   
                 EXCITATION  DE-EXCITATION
     OCC     VIR  AMPLITUDE      AMPLITUDE
      I       A     X(I->A)        Y(A->I)
     ---     ---   --------       --------
     76      88    0.030349      -0.000107
     78      88    0.051957      -0.000020
     83      88    0.603221      -0.012569
     84      88    0.730079       0.002942
     87      88   -0.047408      -0.000927
     85      89    0.106802       0.006069
     86      89   -0.091355       0.001414
     85      90   -0.176008      -0.012928
     86      90   -0.042384      -0.000309
     87      90    0.034055      -0.001511
     87      91    0.165605       0.000241
     86      92   -0.038977      -0.004255
     87      92   -0.037680       0.000984
     87      93    0.082605       0.000115
     87      94    0.030613      -0.000255

 STATE #  10  ENERGY =    4.703822 EV
 OSCILLATOR STRENGTH =    0.004671
 LAMBDA DIAGNOSTIC   =    0.471 (RYDBERG/CHARGE TRANSFER CHARACTER)
 SYMMETRY OF STATE   =    A   
                 EXCITATION  DE-EXCITATION
     OCC     VIR  AMPLITUDE      AMPLITUDE
      I       A     X(I->A)        Y(A->I)
     ---     ---   --------       --------
     83      88   -0.053812       0.002371
     84      89    0.036158       0.005713
     85      89   -0.037450      -0.000717
     86      89    0.118160      -0.003279
     85      90    0.058721       0.002100
     87      91   -0.035062       0.000007
     86      92   -0.031470      -0.003396
     87      93    0.936170      -0.004949
     87      94   -0.178595      -0.007256
     87      95   -0.162113      -0.002874
     87      96   -0.113157      -0.002790
     87      97   -0.033285       0.000986
     87      98   -0.091354       0.000456
     87      99    0.057594       0.000490
     87     102   -0.043264      -0.001223
     87     104   -0.043770      -0.000702
     87     105    0.040318      -0.000107
     87     109   -0.030816      -0.001003

                          SUMMARY OF TDDFT RESULTS

   STATE             ENERGY     EXCITATION  TRANSITION DIPOLE, A.U.  OSCILLATOR
   0 ->             HARTREE          EV         X       Y       Z     STRENGTH
   0  A         -998.8480261682    0.000
   1  A         -998.7791936188    1.873     0.3805 -0.0090 -0.0200    0.0067
   2  A         -998.7261043659    3.318    -1.4758 -0.0367  0.1182    0.1783
   3  A         -998.7201287221    3.480    -0.2607  0.0416  0.0558    0.0062
   4  A         -998.7179503970    3.540     0.9692  0.0707 -0.0474    0.0821
   5  A         -998.7069250585    3.840    -0.5428 -0.2499  0.6947    0.0790
   6  A         -998.6910378790    4.272     0.1606  0.0934 -0.0408    0.0038
   7  A         -998.6883865773    4.344    -1.4116  0.1988 -0.0582    0.2166
   8  A         -998.6859068922    4.411    -0.9487 -0.1706 -0.2742    0.1086
   9  A         -998.6840817009    4.461     0.5373  0.0495  0.1430    0.0340
  10  A         -998.6751638808    4.704     0.1582  0.0593 -0.1094    0.0047
  
 TRANSITION        EXCITATION            TRANSITION DIPOLE, A.U.     OSCILLATOR
                       EV              X       Y       Z       DIP    STRENGTH

  1  ->  2           1.445          0.1794  0.2290  0.0204   0.2916    0.0030
  1  ->  3           1.607         -0.9404 -0.7926  0.0762   1.2322    0.0598
  1  ->  4           1.667          0.9344  0.0942  0.0882   0.9432    0.0363
  1  ->  5           1.967         -0.1704  0.0109  0.0062   0.1709    0.0014
  1  ->  6           2.399         -2.2957 -0.3342 -0.4854   2.3701    0.3301
  1  ->  7           2.471          0.0454 -0.1709 -0.0490   0.1835    0.0020
  1  ->  8           2.538          0.8342 -0.6508 -0.2903   1.0971    0.0749
  1  ->  9           2.588          2.0337 -1.2472 -0.4138   2.4213    0.3717
  1  -> 10           2.831         -0.0651 -0.0070  0.3380   0.3442    0.0082
  2  ->  3           0.163          0.6304 -0.0932 -0.0695   0.6410    0.0016
  2  ->  4           0.222         -5.2349  0.7300  0.5046   5.3096    0.1533
  2  ->  5           0.522         -0.0650  0.0842  0.0135   0.1072    0.0001
  2  ->  6           0.954         -0.7069 -0.0980 -0.2353   0.7515    0.0132
  2  ->  7           1.026         -0.7338 -0.0628  0.0462   0.7379    0.0137
  2  ->  8           1.094         -0.1690  0.2680  0.0123   0.3171    0.0027
  2  ->  9           1.143         -0.1338 -0.0760 -0.0472   0.1610    0.0007
  2  -> 10           1.386          0.4288 -0.5853 -0.1498   0.7408    0.0186
  3  ->  4           0.059         -0.6528  0.2353  0.0921   0.6999    0.0007
  3  ->  5           0.359          0.6967 -0.0169 -0.0101   0.6970    0.0043
  3  ->  6           0.792         -0.0793  0.0268 -0.0073   0.0840    0.0001
  3  ->  7           0.864         -0.3368  0.0524  0.0297   0.3421    0.0025
  3  ->  8           0.931          0.3791 -0.1807 -0.0129   0.4202    0.0040
  3  ->  9           0.981         -0.0779 -0.3482 -0.0158   0.3571    0.0031
  3  -> 10           1.224          0.1250 -0.0137  0.0030   0.1258    0.0005
  4  ->  5           0.300          0.0295 -0.0787 -0.0266   0.0882    0.0001
  4  ->  6           0.732          0.1795 -0.1096 -0.1809   0.2774    0.0014
  4  ->  7           0.804          0.0198 -0.0521 -0.0434   0.0706    0.0001
  4  ->  8           0.872          0.0301 -0.1529 -0.0419   0.1614    0.0006
  4  ->  9           0.922         -0.0410  0.1036  0.0030   0.1114    0.0003
  4  -> 10           1.164         -0.9765 -0.1713  0.0029   0.9914    0.0280
  5  ->  6           0.432         -0.1587 -0.0133 -0.0087   0.1595    0.0003
  5  ->  7           0.504         -0.0365 -0.0714 -0.0359   0.0879    0.0001
  5  ->  8           0.572         -0.0802 -0.0333  0.0284   0.0914    0.0001
  5  ->  9           0.622          0.3186  0.0483 -0.0788   0.3317    0.0017
  5  -> 10           0.864         -0.0450  0.0342  0.0113   0.0576    0.0001
  6  ->  7           0.072         -0.6219 -0.0646 -0.0797   0.6303    0.0007
  6  ->  8           0.140         -0.5615 -0.3241 -0.2351   0.6896    0.0016
  6  ->  9           0.189          0.7116 -0.2686 -0.2968   0.8165    0.0031
  6  -> 10           0.432          0.8846  0.9754 -0.3168   1.3544    0.0194
  7  ->  8           0.067         -1.2151  0.4888  0.3877   1.3659    0.0031
  7  ->  9           0.117         -1.1383 -0.0433 -0.0380   1.1398    0.0037
  7  -> 10           0.360          0.5106  0.1612  0.0096   0.5355    0.0025
  8  ->  9           0.050         -5.0334  0.1601  0.2088   5.0403    0.0309
  8  -> 10           0.292          0.1100  0.0934 -0.1194   0.1873    0.0003
  9  -> 10           0.243          0.4339  0.3030 -0.1193   0.5425    0.0017
 
 SELECTING EXCITED STATE IROOT=   1 AT E=     -998.7791936188
 AS THE STATE OF INTEREST.

 ..... DONE WITH TD-DFT EXCITATION ENERGIES .....
 CPU     0: STEP CPU TIME=   597.41 TOTAL CPU TIME=        747.1 (     12.5 MIN)
 TOTAL WALL CLOCK TIME=        840.7 SECONDS, CPU UTILIZATION IS    88.86%

             ----------------------------------------------
             -------   RESULTS OF SMD CALCULATION   -------
             ----------------------------------------------
                     COMPUTED FOR THE GROUND STATE         

 INTERNAL ENERGY IN SOLVENT = <PSI| H(0) |PSI>       =     -998.7725036379 A.U.
 TOTAL ENERGY IN SOLVENT = <PSI| H(0)+V/2 |PSI>      =     -998.8433203440 A.U.
 ELECTROSTATIC INTERACTION <PSI| V/2 |PSI>           =       -0.0708167061 A.U.
 CDS INTERACTION                                     =       -0.0047058242 A.U.
 TOTAL FREE ENERGY IN SOLVENT                        =     -998.8480261682 A.U.

 ELECTROSTATIC INTERACTION    =         -44.44 KCAL/MOL
 CDS INTERACTION              =          -2.95 KCAL/MOL

 .... DONE PRINTING SMD SOLVENT SUMMARY ....
 CPU     0: STEP CPU TIME=     0.00 TOTAL CPU TIME=        747.1 (     12.5 MIN)
 TOTAL WALL CLOCK TIME=        840.7 SECONDS, CPU UTILIZATION IS    88.86%
              63539797  WORDS OF DYNAMIC MEMORY USED
 EXECUTION OF GAMESS TERMINATED NORMALLY Thu Apr 25 11:43:29 2024
 DDI: 263640 bytes (0.3 MB / 0 MWords) used by master data server.

 ----------------------------------------
 CPU timing information for all processes
 ========================================
 0: 744.524 + 2.846 = 747.370
 1: 741.82 + 2.888 = 743.971
 2: 744.299 + 2.708 = 747.08
 3: 751.962 + 3.124 = 755.87
 4: 734.256 + 3.500 = 737.756
 5: 748.255 + 2.933 = 751.189
 6: 739.09 + 2.875 = 741.885
 7: 735.475 + 2.850 = 738.325
 8: 728.664 + 3.41 = 731.706
 9: 723.554 + 2.956 = 726.510
 10: 737.18 + 2.870 = 739.888
 11: 736.211 + 5.27 = 741.238
 12: 737.336 + 5.313 = 742.650
 13: 722.300 + 3.114 = 725.414
 14: 724.183 + 3.239 = 727.423
 15: 736.352 + 2.680 = 739.32
 16: 0.228 + 0.11 = 0.240
 17: 0.172 + 0.12 = 0.184
 18: 0.217 + 0.15 = 0.232
 19: 0.232 + 0.15 = 0.247
 20: 0.211 + 0.19 = 0.230
 21: 0.156 + 0.16 = 0.172
 22: 0.143 + 0.19 = 0.162
 23: 0.217 + 0.15 = 0.232
 24: 0.240 + 0.15 = 0.255
 25: 0.155 + 0.12 = 0.168
 26: 0.140 + 0.13 = 0.153
 27: 0.226 + 0.14 = 0.240
 28: 0.171 + 0.15 = 0.187
 29: 0.187 + 0.14 = 0.202
 30: 0.198 + 0.15 = 0.214
 31: 0.194 + 0.13 = 0.207
 ----------------------------------------
else
unset echo
----- accounting info -----
Files used on the master node acn32 were:
-rw-------. 1 lever046 lever046     3178 Apr 25 11:29 /tmp/gms_dye01_b3lyp_meth_uvv.F05
-rw-------. 1 lever046 lever046 50790400 Apr 25 11:43 /tmp/gms_dye01_b3lyp_meth_uvv.F10
-rw-------. 1 lever046 lever046  7809400 Apr 25 11:32 /tmp/gms_dye01_b3lyp_meth_uvv.F22
-rw-------. 1 lever046 lever046  7809400 Apr 25 11:32 /tmp/gms_dye01_b3lyp_meth_uvv.F22.001
-rw-------. 1 lever046 lever046  7809400 Apr 25 11:32 /tmp/gms_dye01_b3lyp_meth_uvv.F22.002
-rw-------. 1 lever046 lever046  7809400 Apr 25 11:32 /tmp/gms_dye01_b3lyp_meth_uvv.F22.003
-rw-------. 1 lever046 lever046  7809400 Apr 25 11:32 /tmp/gms_dye01_b3lyp_meth_uvv.F22.004
-rw-------. 1 lever046 lever046  7809400 Apr 25 11:32 /tmp/gms_dye01_b3lyp_meth_uvv.F22.005
-rw-------. 1 lever046 lever046  7809400 Apr 25 11:32 /tmp/gms_dye01_b3lyp_meth_uvv.F22.006
-rw-------. 1 lever046 lever046  7809400 Apr 25 11:32 /tmp/gms_dye01_b3lyp_meth_uvv.F22.007
-rw-------. 1 lever046 lever046  7809400 Apr 25 11:32 /tmp/gms_dye01_b3lyp_meth_uvv.F22.008
-rw-------. 1 lever046 lever046  7809400 Apr 25 11:32 /tmp/gms_dye01_b3lyp_meth_uvv.F22.009
-rw-------. 1 lever046 lever046  7809400 Apr 25 11:32 /tmp/gms_dye01_b3lyp_meth_uvv.F22.010
-rw-------. 1 lever046 lever046  7809400 Apr 25 11:32 /tmp/gms_dye01_b3lyp_meth_uvv.F22.011
-rw-------. 1 lever046 lever046  7809400 Apr 25 11:32 /tmp/gms_dye01_b3lyp_meth_uvv.F22.012
-rw-------. 1 lever046 lever046  7809400 Apr 25 11:32 /tmp/gms_dye01_b3lyp_meth_uvv.F22.013
-rw-------. 1 lever046 lever046  7809400 Apr 25 11:32 /tmp/gms_dye01_b3lyp_meth_uvv.F22.014
-rw-------. 1 lever046 lever046  7809400 Apr 25 11:32 /tmp/gms_dye01_b3lyp_meth_uvv.F22.015
-rw-------. 1 lever046 lever046        8 Apr 25 11:29 /tmp/gms_dye01_b3lyp_meth_uvv.F26
-rw-------. 1 lever046 lever046        0 Apr 25 11:29 /tmp/gms_dye01_b3lyp_meth_uvv.F27
-rw-------. 1 lever046 lever046        6 Apr 25 11:29 /tmp/gms_dye01_b3lyp_meth_uvv.nodes.mpd
ls: No match.
ls: No match.
ls: No match.
Thu Apr 25 11:43:31 CDT 2024
0.258u 0.318s 14:08.05 0.0%	0+0k 8+6368io 0pf+0w
