 argument  1 = nwc_h2o_hf_nosmd_ram.inp
                                         
                                         
 
 
              Northwest Computational Chemistry Package (NWChem) 6.8
              ------------------------------------------------------
 
 
                    Environmental Molecular Sciences Laboratory
                       Pacific Northwest National Laboratory
                                Richland, WA 99352
 
                              Copyright (c) 1994-2017
                       Pacific Northwest National Laboratory
                            Battelle Memorial Institute
 
             NWChem is an open-source computational chemistry package
                        distributed under the terms of the
                      Educational Community License (ECL) 2.0
             A copy of the license is included with this distribution
                              in the LICENSE.TXT file
 
                                  ACKNOWLEDGMENT
                                  --------------

            This software and its documentation were developed at the
            EMSL at Pacific Northwest National Laboratory, a multiprogram
            national laboratory, operated for the U.S. Department of Energy
            by Battelle under Contract Number DE-AC05-76RL01830. Support
            for this work was provided by the Department of Energy Office
            of Biological and Environmental Research, Office of Basic
            Energy Sciences, and the Office of Advanced Scientific Computing.


           Job information
           ---------------

    hostname        = acn60
    program         = nwchem
    date            = Wed Apr 24 15:54:11 2024

    compiled        = Tue_Aug_14_10:52:15_2018
    source          = /panfs/roc/msisoft/nwchem/6.8_impi_2018
    nwchem branch   = 6.8
    nwchem revision = v6.8-47-gdf6c956
    ga revision     = ga-5.6.3
    use scalapack   = T
    input           = nwc_h2o_hf_nosmd_ram.inp
    prefix          = nwc_h2o_hf_nosmd_ram.
    data base       = ./nwc_h2o_hf_nosmd_ram.db
    status          = startup
    nproc           =        8
    time left       =     -1s



           Memory information
           ------------------

    heap     =   13107200 doubles =    100.0 Mbytes
    stack    =   13107197 doubles =    100.0 Mbytes
    global   =   26214400 doubles =    200.0 Mbytes (distinct from heap & stack)
    total    =   52428797 doubles =    400.0 Mbytes
    verify   = yes
    hardfail = no 


           Directory information
           ---------------------
 
  0 permanent = .
  0 scratch   = /scratch.global/lever046/nwchem
 
 
 
 
                                NWChem Input Module
                                -------------------
 
 
                            water molecule optimization
                            ---------------------------

 Scaling coordinates for geometry "geometry" by  1.889725989
 (inverse scale =  0.529177249)

 CS  symmetry detected

          ------
          auto-z
          ------
     1 autoz failed with cvr_scaling = 1.2 changing to 1.3
     2 autoz failed with cvr_scaling = 1.3 changing to 1.4
     3 autoz failed with cvr_scaling = 1.4 changing to 1.5
     4 autoz failed with cvr_scaling = 1.5 changing to 1.6
     5 autoz failed with cvr_scaling = 1.6 changing to 1.7

 AUTOZ failed to generate good internal coordinates.
 Cartesian coordinates will be used in optimizations.

 
 
                             Geometry "geometry" -> ""
                             -------------------------
 
 Output coordinates in angstroms (scale by  1.889725989 to convert to a.u.)
 
  No.       Tag          Charge          X              Y              Z
 ---- ---------------- ---------- -------------- -------------- --------------
    1 O                    8.0000     0.22186344     0.06462389     0.00000000
    2 H                    1.0000    -1.08694543     1.33719488     0.00000000
    3 H                    1.0000    -0.68796206    -1.85418601     0.00000000
 
      Atomic Mass 
      ----------- 
 
      O                 15.994910
      H                  1.007825
 

 Effective nuclear repulsion energy (a.u.)       4.4771147998

            Nuclear Dipole moment (a.u.) 
            ----------------------------
        X                 Y               Z
 ---------------- ---------------- ----------------
     0.0000000000    -0.0000000000     0.0000000000
 
      Symmetry information
      --------------------
 
 Group name             Cs        
 Group number              2
 Group order               2
 No. of unique centers     3
 
      Symmetry unique atoms
 
     1    2    3
 
 
            XYZ format geometry
            -------------------
     3
 geometry
 O                     0.22186344     0.06462389     0.00000000
 H                    -1.08694543     1.33719488     0.00000000
 H                    -0.68796206    -1.85418601     0.00000000
 
  library name resolved from: environment
  library file name is: <
 /common/software/install/migrated/nwchem/6.5_ompi_1.7.2/src/basis/libraries/>
  


 Summary of "ao basis" -> "" (cartesian)
 ------------------------------------------------------------------------------
       Tag                 Description            Shells   Functions and Types
 ---------------- ------------------------------  ------  ---------------------
 *                          6-31+G*                   on all atoms 


 
 
                           NWChem Geometry Optimization
                           ----------------------------
 
 
 
 
                            water molecule optimization
 
 
 maximum gradient threshold         (gmax) =   0.000450
 rms gradient threshold             (grms) =   0.000300
 maximum cartesian step threshold   (xmax) =   0.001800
 rms cartesian step threshold       (xrms) =   0.001200
 fixed trust radius                (trust) =   0.300000
 maximum step size to saddle      (sadstp) =   0.100000
 energy precision                  (eprec) =   1.0D-07
 maximum number of steps          (nptopt) =   20
 initial hessian option           (inhess) =    0
 line search option               (linopt) =    1
 hessian update option            (modupd) =    1
 saddle point option              (modsad) =    0
 initial eigen-mode to follow     (moddir) =    0
 initial variable to follow       (vardir) =    0
 follow first negative mode     (firstneg) =    T
 apply conjugacy                    (opcg) =    F
 source of zmatrix                         =           


          -------------------
          Energy Minimization
          -------------------

 
 Using diagonal initial Hessian 

          --------
          Step   0
          --------
 
 
                         Geometry "geometry" -> "geometry"
                         ---------------------------------
 
 Output coordinates in angstroms (scale by  1.889725989 to convert to a.u.)
 
  No.       Tag          Charge          X              Y              Z
 ---- ---------------- ---------- -------------- -------------- --------------
    1 O                    8.0000     0.22186344     0.06462389     0.00000000
    2 H                    1.0000    -1.08694543     1.33719488     0.00000000
    3 H                    1.0000    -0.68796206    -1.85418601     0.00000000
 
      Atomic Mass 
      ----------- 
 
      O                 15.994910
      H                  1.007825
 

 Effective nuclear repulsion energy (a.u.)       4.4771147998

            Nuclear Dipole moment (a.u.) 
            ----------------------------
        X                 Y               Z
 ---------------- ---------------- ----------------
     0.0000000000    -0.0000000000     0.0000000000
 
      Symmetry information
      --------------------
 
 Group name             Cs        
 Group number              2
 Group order               2
 No. of unique centers     3
 
      Symmetry unique atoms
 
     1    2    3
 
                      Basis "ao basis" -> "ao basis" (cartesian)
                      -----
  O (Oxygen)
  ----------
            Exponent  Coefficients 
       -------------- ---------------------------------------------------------
  1 S  5.48467170E+03  0.001831
  1 S  8.25234950E+02  0.013950
  1 S  1.88046960E+02  0.068445
  1 S  5.29645000E+01  0.232714
  1 S  1.68975700E+01  0.470193
  1 S  5.79963530E+00  0.358521
 
  2 S  1.55396160E+01 -0.110778
  2 S  3.59993360E+00 -0.148026
  2 S  1.01376180E+00  1.130767
 
  3 P  1.55396160E+01  0.070874
  3 P  3.59993360E+00  0.339753
  3 P  1.01376180E+00  0.727159
 
  4 S  2.70005800E-01  1.000000
 
  5 P  2.70005800E-01  1.000000
 
  6 S  8.45000000E-02  1.000000
 
  7 P  8.45000000E-02  1.000000
 
  8 D  8.00000000E-01  1.000000
 
  H (Hydrogen)
  ------------
            Exponent  Coefficients 
       -------------- ---------------------------------------------------------
  1 S  1.87311370E+01  0.033495
  1 S  2.82539370E+00  0.234727
  1 S  6.40121700E-01  0.813757
 
  2 S  1.61277800E-01  1.000000
 


 Summary of "ao basis" -> "ao basis" (cartesian)
 ------------------------------------------------------------------------------
       Tag                 Description            Shells   Functions and Types
 ---------------- ------------------------------  ------  ---------------------
 O                          6-31+G*                  8       19   4s3p1d
 H                          6-31+G*                  2        2   2s


                                 NWChem SCF Module
                                 -----------------
 
 
                            water molecule optimization
 
 

  ao basis        = "ao basis"
  functions       =    23
  atoms           =     3
  closed shells   =     5
  open shells     =     0
  charge          =   0.00
  wavefunction    = RHF 
  input vectors   = atomic
  output vectors  = ./nwc_h2o_hf_nosmd_ram.movecs
  use symmetry    = T
  symmetry adapt  = T


 Summary of "ao basis" -> "ao basis" (cartesian)
 ------------------------------------------------------------------------------
       Tag                 Description            Shells   Functions and Types
 ---------------- ------------------------------  ------  ---------------------
 O                          6-31+G*                  8       19   4s3p1d
 H                          6-31+G*                  2        2   2s


      Symmetry analysis of basis
      --------------------------
 
        a'         18
        a"          5
 

 Forming initial guess at       0.3s

 
      Superposition of Atomic Density Guess
      -------------------------------------
 
 Sum of atomic energies:         -75.75320674
 
      Non-variational initial energy
      ------------------------------

 Total energy =     -75.008172
 1-e energy   =    -113.070047
 2-e energy   =      33.584760
 HOMO         =      -0.382076
 LUMO         =      -0.161718
 
 
      Symmetry analysis of molecular orbitals - initial
      -------------------------------------------------
 
  Numbering of irreducible representations: 
 
     1 a'          2 a"      
 
  Orbital symmetries:
 
     1 a'          2 a'          3 a'          4 a'          5 a"      
     6 a'          7 a'          8 a'          9 a"         10 a'      
    11 a'         12 a'         13 a'         14 a'         15 a"      
 

 Starting SCF solution at       0.4s



 ----------------------------------------------
         Quadratically convergent ROHF

 Convergence threshold     :          1.000E-04
 Maximum no. of iterations :           30
 Final Fock-matrix accuracy:          1.000E-07
 ----------------------------------------------


 #quartets = 3.078D+03 #integrals = 1.647D+04 #direct =  0.0% #cached =100.0%


 Integral file          = /scratch.global/lever046/nwchem/nwc_h2o_hf_nosmd_ram.aoints.0
 Record size in doubles =    65536    No. of integs per rec  =    43688
 Max. records in memory =        2    Max. records in file   = 53478791
 No. of bits per label  =        8    No. of bits per value  =       64


File balance: exchanges=     0  moved=     0  time=   0.0


              iter       energy          gnorm     gmax       time
             ----- ------------------- --------- --------- --------
                 1      -75.3267624245  1.65D+00  7.68D-01      0.2
                 2      -75.5146838585  5.37D-01  2.61D-01      0.2
                 3      -75.5484129844  6.97D-01  4.06D-01      0.2
                 4      -75.5790075302  1.76D-01  7.30D-02      0.2
                 5      -75.5821007819  7.44D-03  3.18D-03      0.2
                 6      -75.5821220273  1.18D-04  5.85D-05      0.2
                 7      -75.5821220314  4.83D-06  3.01D-06      0.2


       Final RHF  results 
       ------------------ 

         Total SCF energy =    -75.582122031416
      One-electron energy =   -113.613757120255
      Two-electron energy =     33.554520289054
 Nuclear repulsion energy =      4.477114799785

        Time for solution =      0.2s


 
       Symmetry analysis of molecular orbitals - final
       -----------------------------------------------
 
  Numbering of irreducible representations: 
 
     1 a'          2 a"      
 
  Orbital symmetries:
 
     1 a'          2 a'          3 a"          4 a'          5 a'      
     6 a'          7 a'          8 a'          9 a"         10 a'      
    11 a'         12 a'         13 a'         14 a"         15 a'      
 
             Final eigenvalues
             -----------------

              1      
    1  -20.6817
    2   -1.2026
    3   -0.5105
    4   -0.4496
    5   -0.4080
    6   -0.0553
    7    0.0075
    8    0.2538
    9    0.2604
   10    0.3074
   11    0.3228
   12    0.9942
   13    1.0233
   14    1.4080
   15    1.4283
 
                       ROHF Final Molecular Orbital Analysis
                       -------------------------------------
 
 Vector    2  Occ=2.000000D+00  E=-1.202564D+00  Symmetry=a'
              MO Center=  2.1D-01,  7.2D-02, -2.4D-16, r^2= 4.8D-01
   Bfn.  Coefficient  Atom+Function         Bfn.  Coefficient  Atom+Function  
  ----- ------------  ---------------      ----- ------------  ---------------
     2      0.542596  1 O  s                  6      0.531191  1 O  s          
     1     -0.230325  1 O  s          
 
 Vector    3  Occ=2.000000D+00  E=-5.105329D-01  Symmetry=a"
              MO Center=  2.2D-01,  6.5D-02,  7.2D-16, r^2= 6.1D-01
   Bfn.  Coefficient  Atom+Function         Bfn.  Coefficient  Atom+Function  
  ----- ------------  ---------------      ----- ------------  ---------------
     5      0.678696  1 O  pz                 9      0.426590  1 O  pz         
 
 Vector    4  Occ=2.000000D+00  E=-4.496205D-01  Symmetry=a'
              MO Center= -2.5D-01,  5.1D-01, -7.1D-16, r^2= 1.5D+00
   Bfn.  Coefficient  Atom+Function         Bfn.  Coefficient  Atom+Function  
  ----- ------------  ---------------      ----- ------------  ---------------
     3      0.378524  1 O  px                21     -0.331185  2 H  s          
     4     -0.276042  1 O  py                 7      0.272695  1 O  px         
    20     -0.220189  2 H  s                  8     -0.207691  1 O  py         
 
 Vector    5  Occ=2.000000D+00  E=-4.079532D-01  Symmetry=a'
              MO Center= -1.4D-01, -6.7D-01,  3.1D-16, r^2= 1.8D+00
   Bfn.  Coefficient  Atom+Function         Bfn.  Coefficient  Atom+Function  
  ----- ------------  ---------------      ----- ------------  ---------------
    23     -0.357241  3 H  s                  4      0.340949  1 O  py         
     3      0.305794  1 O  px                 8      0.251121  1 O  py         
     7      0.216799  1 O  px                22     -0.213940  3 H  s          
 
 Vector    6  Occ=0.000000D+00  E=-5.530136D-02  Symmetry=a'
              MO Center= -3.6D-01, -8.3D-01, -9.4D-16, r^2= 2.7D+00
   Bfn.  Coefficient  Atom+Function         Bfn.  Coefficient  Atom+Function  
  ----- ------------  ---------------      ----- ------------  ---------------
    23      0.637478  3 H  s                  3      0.322820  1 O  px         
     7      0.261972  1 O  px                21      0.256002  2 H  s          
    22      0.245206  3 H  s                  6     -0.226873  1 O  s          
     4      0.225648  1 O  py                 8      0.179191  1 O  py         
 
 Vector    7  Occ=0.000000D+00  E= 7.510726D-03  Symmetry=a'
              MO Center= -5.8D-01,  6.1D-01,  6.5D-16, r^2= 2.4D+00
   Bfn.  Coefficient  Atom+Function         Bfn.  Coefficient  Atom+Function  
  ----- ------------  ---------------      ----- ------------  ---------------
    21      0.724133  2 H  s                  4     -0.365399  1 O  py         
     8     -0.342762  1 O  py                23     -0.287133  3 H  s          
    20      0.238891  2 H  s                  3      0.211111  1 O  px         
     6     -0.205963  1 O  s                  7      0.201066  1 O  px         
 
 Vector    8  Occ=0.000000D+00  E= 2.538030D-01  Symmetry=a'
              MO Center=  1.2D+00,  2.3D-01,  1.1D-14, r^2= 3.5D+00
   Bfn.  Coefficient  Atom+Function         Bfn.  Coefficient  Atom+Function  
  ----- ------------  ---------------      ----- ------------  ---------------
    10      1.288112  1 O  s                  6     -0.961073  1 O  s          
    11      0.775571  1 O  px                 7     -0.387632  1 O  px         
     3     -0.168082  1 O  px                21     -0.165113  2 H  s          
 
 Vector    9  Occ=0.000000D+00  E= 2.603637D-01  Symmetry=a"
              MO Center=  2.2D-01,  6.5D-02, -1.2D-14, r^2= 5.0D+00
   Bfn.  Coefficient  Atom+Function         Bfn.  Coefficient  Atom+Function  
  ----- ------------  ---------------      ----- ------------  ---------------
    13      1.231645  1 O  pz                 9     -0.496632  1 O  pz         
     5     -0.199275  1 O  pz         
 
 Vector   10  Occ=0.000000D+00  E= 3.074399D-01  Symmetry=a'
              MO Center=  6.5D-01,  2.6D-01, -1.1D-14, r^2= 4.9D+00
   Bfn.  Coefficient  Atom+Function         Bfn.  Coefficient  Atom+Function  
  ----- ------------  ---------------      ----- ------------  ---------------
    12      1.558614  1 O  py                21     -0.859722  2 H  s          
    11     -0.637379  1 O  px                10      0.564185  1 O  s          
     8     -0.504813  1 O  py                23      0.366738  3 H  s          
     6     -0.299939  1 O  s                  4     -0.159416  1 O  py         
     7      0.159640  1 O  px         
 
 Vector   11  Occ=0.000000D+00  E= 3.227812D-01  Symmetry=a'
              MO Center= -6.7D-01, -2.8D-01,  1.2D-14, r^2= 4.0D+00
   Bfn.  Coefficient  Atom+Function         Bfn.  Coefficient  Atom+Function  
  ----- ------------  ---------------      ----- ------------  ---------------
    10      1.715153  1 O  s                 11     -1.173420  1 O  px         
     6     -1.098749  1 O  s                 23     -0.793704  3 H  s          
    21     -0.655684  2 H  s                 12     -0.570584  1 O  py         
     7      0.355957  1 O  px                 8      0.254378  1 O  py         
 
 Vector   12  Occ=0.000000D+00  E= 9.942422D-01  Symmetry=a'
              MO Center= -1.1D+00,  1.1D+00,  7.5D-16, r^2= 2.5D+00
   Bfn.  Coefficient  Atom+Function         Bfn.  Coefficient  Atom+Function  
  ----- ------------  ---------------      ----- ------------  ---------------
    21      1.471239  2 H  s                 20     -1.168099  2 H  s          
     6     -0.695076  1 O  s                 23      0.452638  3 H  s          
    22     -0.392782  3 H  s                 10     -0.363655  1 O  s          
     2      0.339499  1 O  s                  7      0.301036  1 O  px         
    11      0.223400  1 O  px                 8     -0.220268  1 O  py         
 
 Vector   13  Occ=0.000000D+00  E= 1.023286D+00  Symmetry=a'
              MO Center= -7.7D-01, -1.7D+00,  5.4D-16, r^2= 2.2D+00
   Bfn.  Coefficient  Atom+Function         Bfn.  Coefficient  Atom+Function  
  ----- ------------  ---------------      ----- ------------  ---------------
    23     -1.354381  3 H  s                 22      1.258311  3 H  s          
    21      0.405706  2 H  s                 20     -0.375037  2 H  s          
    10      0.249121  1 O  s                 12     -0.250059  1 O  py         
     8     -0.238538  1 O  py                 4      0.151722  1 O  py         
 
 Vector   14  Occ=0.000000D+00  E= 1.408026D+00  Symmetry=a"
              MO Center=  2.2D-01,  6.5D-02, -2.5D-13, r^2= 1.6D+00
   Bfn.  Coefficient  Atom+Function         Bfn.  Coefficient  Atom+Function  
  ----- ------------  ---------------      ----- ------------  ---------------
     9      1.450098  1 O  pz                 5     -0.966489  1 O  pz         
    13     -0.653509  1 O  pz         
 
 Vector   15  Occ=0.000000D+00  E= 1.428252D+00  Symmetry=a'
              MO Center=  4.1D-01,  2.3D-01,  1.2D-13, r^2= 1.5D+00
   Bfn.  Coefficient  Atom+Function         Bfn.  Coefficient  Atom+Function  
  ----- ------------  ---------------      ----- ------------  ---------------
     7      1.067969  1 O  px                 8      0.896816  1 O  py         
     3     -0.746516  1 O  px                 6      0.678006  1 O  s          
     4     -0.636683  1 O  py                11     -0.504274  1 O  px         
    12     -0.465585  1 O  py                 2     -0.320037  1 O  s          
    23     -0.177285  3 H  s                 10     -0.173067  1 O  s          
 

 center of mass
 --------------
 x =   0.18465328 y =   0.05378540 z =   0.00000000

 moments of inertia (a.u.)
 ------------------
          18.995200684669           0.000000000000           0.000000000000
           0.000000000000           8.152910313413           0.000000000000
           0.000000000000           0.000000000000          27.148110998081
 
  Mulliken analysis of the total density
  --------------------------------------

    Atom       Charge   Shell Charges
 -----------   ------   -------------------------------------------------------
    1 O    8     8.57   2.00  1.00  2.48  0.98  1.75  0.03  0.33  0.01
    2 H    1     0.70   0.24  0.46
    3 H    1     0.73   0.23  0.50
 
       Multipole analysis of the density wrt the origin
       ------------------------------------------------
 
     L   x y z        total         open         nuclear
     -   - - -        -----         ----         -------
     0   0 0 0     -0.000000      0.000000     10.000000
 
     1   1 0 0     -0.966226      0.000000      0.000000
     1   0 1 0     -0.167824      0.000000     -0.000000
     1   0 0 1     -0.000000      0.000000      0.000000
 
     2   2 0 0     -4.484301      0.000000      7.315430
     2   1 1 0     -0.420430      0.000000     -0.225501
     2   1 0 1     -0.000000      0.000000      0.000000
     2   0 2 0     -0.570115      0.000000     18.782034
     2   0 1 1      0.000000      0.000000      0.000000
     2   0 0 2     -6.802810      0.000000      0.000000
 

 Parallel integral file used       8 records with       0 large values

                              NWChem Gradients Module
                              -----------------------
 
 
                            water molecule optimization
 

  wavefunction    =   RHF     

  Using symmetry


                         RHF ENERGY GRADIENTS

    atom               coordinates                        gradient
                 x          y          z           x          y          z
   1 O       0.419261   0.122121   0.000000    0.102734  -0.001730   0.000000
   2 H      -2.054029   2.526932   0.000000   -0.071872   0.076872   0.000000
   3 H      -1.300060  -3.503903   0.000000   -0.030862  -0.075142   0.000000
 
                 ----------------------------------------
                 |  Time  |  1-e(secs)   |  2-e(secs)   |
                 ----------------------------------------
                 |  CPU   |       0.00   |       0.00   |
                 ----------------------------------------
                 |  WALL  |       0.00   |       0.00   |
                 ----------------------------------------

@ Step       Energy      Delta E   Gmax     Grms     Xrms     Xmax   Walltime
@ ---- ---------------- -------- -------- -------- -------- -------- --------
@    0     -75.58212203  0.0D+00  0.10273  0.05601  0.00000  0.00000      1.1
                                                                    

 Restricting large step in mode    2 eval= 2.3D-01 step=-5.2D-01 new=-3.0D-01
 Restricting large step in mode    3 eval= 2.9D-01 step= 4.1D-01 new= 3.0D-01
                                 NWChem SCF Module
                                 -----------------
 
 
                            water molecule optimization
 
 

  ao basis        = "ao basis"
  functions       =    23
  atoms           =     3
  closed shells   =     5
  open shells     =     0
  charge          =   0.00
  wavefunction    = RHF 
  input vectors   = ./nwc_h2o_hf_nosmd_ram.movecs
  output vectors  = ./nwc_h2o_hf_nosmd_ram.movecs
  use symmetry    = T
  symmetry adapt  = T


 Summary of "ao basis" -> "ao basis" (cartesian)
 ------------------------------------------------------------------------------
       Tag                 Description            Shells   Functions and Types
 ---------------- ------------------------------  ------  ---------------------
 O                          6-31+G*                  8       19   4s3p1d
 H                          6-31+G*                  2        2   2s


      Symmetry analysis of basis
      --------------------------
 
        a'         18
        a"          5
 

 Forming initial guess at       1.1s


 Loading old vectors from job with title :

water molecule optimization

 
      Symmetry analysis of molecular orbitals - initial
      -------------------------------------------------
 
  Numbering of irreducible representations: 
 
     1 a'          2 a"      
 
  Orbital symmetries:
 
     1 a'          2 a'          3 a"          4 a'          5 a'      
     6 a'          7 a'          8 a'          9 a"         10 a'      
    11 a'         12 a'         13 a'         14 a"         15 a'      
 

 Starting SCF solution at       1.2s



 ----------------------------------------------
         Quadratically convergent ROHF

 Convergence threshold     :          1.000E-04
 Maximum no. of iterations :           30
 Final Fock-matrix accuracy:          1.000E-07
 ----------------------------------------------


 #quartets = 3.079D+03 #integrals = 1.647D+04 #direct =  0.0% #cached =100.0%


 Integral file          = /scratch.global/lever046/nwchem/nwc_h2o_hf_nosmd_ram.aoints.0
 Record size in doubles =    65536    No. of integs per rec  =    43688
 Max. records in memory =        2    Max. records in file   = 53478791
 No. of bits per label  =        8    No. of bits per value  =       64


File balance: exchanges=     0  moved=     0  time=   0.0


              iter       energy          gnorm     gmax       time
             ----- ------------------- --------- --------- --------
                 1      -75.6541624714  1.73D-01  7.63D-02      0.4
                 2      -75.6577455195  7.88D-03  3.34D-03      0.5
                 3      -75.6577739151  7.23D-05  3.07D-05      0.5


       Final RHF  results 
       ------------------ 

         Total SCF energy =    -75.657773915103
      One-electron energy =   -114.744457179686
      Two-electron energy =     34.085228646603
 Nuclear repulsion energy =      5.001454617980

        Time for solution =      0.2s


 
       Symmetry analysis of molecular orbitals - final
       -----------------------------------------------
 
  Numbering of irreducible representations: 
 
     1 a'          2 a"      
 
  Orbital symmetries:
 
     1 a'          2 a'          3 a"          4 a'          5 a'      
     6 a'          7 a'          8 a'          9 a"         10 a'      
    11 a'         12 a'         13 a'         14 a"         15 a'      
 
             Final eigenvalues
             -----------------

              1      
    1  -20.6681
    2   -1.2052
    3   -0.5035
    4   -0.4872
    5   -0.4230
    6   -0.0337
    7    0.0662
    8    0.2585
    9    0.2590
   10    0.2957
   11    0.3151
   12    0.9711
   13    1.0172
   14    1.4105
   15    1.4348
 
                       ROHF Final Molecular Orbital Analysis
                       -------------------------------------
 
 Vector    2  Occ=2.000000D+00  E=-1.205159D+00  Symmetry=a'
              MO Center=  6.1D-02,  8.5D-02, -2.0D-16, r^2= 4.9D-01
   Bfn.  Coefficient  Atom+Function         Bfn.  Coefficient  Atom+Function  
  ----- ------------  ---------------      ----- ------------  ---------------
     2      0.532422  1 O  s                  6      0.534711  1 O  s          
     1     -0.228776  1 O  s          
 
 Vector    3  Occ=2.000000D+00  E=-5.034702D-01  Symmetry=a"
              MO Center=  8.2D-02,  7.0D-02,  8.2D-17, r^2= 6.3D-01
   Bfn.  Coefficient  Atom+Function         Bfn.  Coefficient  Atom+Function  
  ----- ------------  ---------------      ----- ------------  ---------------
     5      0.671790  1 O  pz                 9      0.430758  1 O  pz         
 
 Vector    4  Occ=2.000000D+00  E=-4.872333D-01  Symmetry=a'
              MO Center= -2.8D-01,  4.1D-01, -5.2D-16, r^2= 1.3D+00
   Bfn.  Coefficient  Atom+Function         Bfn.  Coefficient  Atom+Function  
  ----- ------------  ---------------      ----- ------------  ---------------
     3      0.356825  1 O  px                 4     -0.310994  1 O  py         
    21     -0.301442  2 H  s                  7      0.256046  1 O  px         
     8     -0.236964  1 O  py                20     -0.229140  2 H  s          
 
 Vector    5  Occ=2.000000D+00  E=-4.230140D-01  Symmetry=a'
              MO Center= -2.0D-01, -5.8D-01,  1.7D-16, r^2= 1.6D+00
   Bfn.  Coefficient  Atom+Function         Bfn.  Coefficient  Atom+Function  
  ----- ------------  ---------------      ----- ------------  ---------------
     3      0.353622  1 O  px                23     -0.334725  3 H  s          
     4      0.305378  1 O  py                 7      0.253475  1 O  px         
     8      0.230193  1 O  py                22     -0.212794  3 H  s          
 
 Vector    6  Occ=0.000000D+00  E=-3.372331D-02  Symmetry=a'
              MO Center= -3.9D-01, -8.3D-01, -1.0D-15, r^2= 2.5D+00
   Bfn.  Coefficient  Atom+Function         Bfn.  Coefficient  Atom+Function  
  ----- ------------  ---------------      ----- ------------  ---------------
    23      0.679251  3 H  s                  6     -0.308551  1 O  s          
     3      0.300455  1 O  px                 7      0.257125  1 O  px         
    21      0.248923  2 H  s                 22      0.245828  3 H  s          
     4      0.233274  1 O  py                 8      0.198928  1 O  py         
 
 Vector    7  Occ=0.000000D+00  E= 6.618789D-02  Symmetry=a'
              MO Center= -6.2D-01,  6.4D-01,  1.0D-15, r^2= 2.2D+00
   Bfn.  Coefficient  Atom+Function         Bfn.  Coefficient  Atom+Function  
  ----- ------------  ---------------      ----- ------------  ---------------
    21      0.812389  2 H  s                  8     -0.405759  1 O  py         
     6     -0.367671  1 O  s                  4     -0.363346  1 O  py         
    23     -0.311101  3 H  s                  7      0.228439  1 O  px         
    20      0.221824  2 H  s                  3      0.203316  1 O  px         
 
 Vector    8  Occ=0.000000D+00  E= 2.585445D-01  Symmetry=a'
              MO Center=  1.1D+00,  1.8D-01,  9.1D-15, r^2= 3.6D+00
   Bfn.  Coefficient  Atom+Function         Bfn.  Coefficient  Atom+Function  
  ----- ------------  ---------------      ----- ------------  ---------------
    10      1.031309  1 O  s                 11      0.950278  1 O  px         
     6     -0.759543  1 O  s                  7     -0.459037  1 O  px         
     3     -0.195477  1 O  px         
 
 Vector    9  Occ=0.000000D+00  E= 2.589836D-01  Symmetry=a"
              MO Center=  8.7D-02,  6.8D-02, -1.2D-14, r^2= 5.0D+00
   Bfn.  Coefficient  Atom+Function         Bfn.  Coefficient  Atom+Function  
  ----- ------------  ---------------      ----- ------------  ---------------
    13      1.231765  1 O  pz                 9     -0.501527  1 O  pz         
     5     -0.203365  1 O  pz         
 
 Vector   10  Occ=0.000000D+00  E= 2.957327D-01  Symmetry=a'
              MO Center=  2.3D-01,  4.1D-01, -2.0D-14, r^2= 5.0D+00
   Bfn.  Coefficient  Atom+Function         Bfn.  Coefficient  Atom+Function  
  ----- ------------  ---------------      ----- ------------  ---------------
    12      1.443788  1 O  py                10      1.244639  1 O  s          
    21     -1.236447  2 H  s                 11     -0.876491  1 O  px         
     6     -0.603002  1 O  s                  8     -0.333482  1 O  py         
    23      0.177951  3 H  s          
 
 Vector   11  Occ=0.000000D+00  E= 3.151444D-01  Symmetry=a'
              MO Center= -4.9D-01, -3.4D-01,  2.2D-14, r^2= 4.3D+00
   Bfn.  Coefficient  Atom+Function         Bfn.  Coefficient  Atom+Function  
  ----- ------------  ---------------      ----- ------------  ---------------
    10      1.717927  1 O  s                  6     -1.035176  1 O  s          
    12     -1.024417  1 O  py                23     -0.960459  3 H  s          
    11     -0.834476  1 O  px                21     -0.450877  2 H  s          
     8      0.389331  1 O  py                 7      0.206030  1 O  px         
 
 Vector   12  Occ=0.000000D+00  E= 9.710826D-01  Symmetry=a'
              MO Center= -9.6D-01,  1.0D+00,  5.1D-15, r^2= 2.1D+00
   Bfn.  Coefficient  Atom+Function         Bfn.  Coefficient  Atom+Function  
  ----- ------------  ---------------      ----- ------------  ---------------
    21      1.648195  2 H  s                 20     -1.091350  2 H  s          
     6     -0.955764  1 O  s                  2      0.460189  1 O  s          
    10     -0.425690  1 O  s                 23      0.352426  3 H  s          
     7      0.345223  1 O  px                22     -0.299731  3 H  s          
     3     -0.278486  1 O  px                 8     -0.265513  1 O  py         
 
 Vector   13  Occ=0.000000D+00  E= 1.017225D+00  Symmetry=a'
              MO Center= -7.0D-01, -1.7D+00, -2.4D-15, r^2= 1.9D+00
   Bfn.  Coefficient  Atom+Function         Bfn.  Coefficient  Atom+Function  
  ----- ------------  ---------------      ----- ------------  ---------------
    23      1.428835  3 H  s                 22     -1.248735  3 H  s          
     8      0.370689  1 O  py                21     -0.370122  2 H  s          
    20      0.272354  2 H  s                 12      0.264254  1 O  py         
     4     -0.261691  1 O  py                10     -0.204424  1 O  s          
     6     -0.201014  1 O  s          
 
 Vector   14  Occ=0.000000D+00  E= 1.410481D+00  Symmetry=a"
              MO Center=  8.5D-02,  7.0D-02, -2.5D-13, r^2= 1.6D+00
   Bfn.  Coefficient  Atom+Function         Bfn.  Coefficient  Atom+Function  
  ----- ------------  ---------------      ----- ------------  ---------------
     9      1.447098  1 O  pz                 5     -0.970448  1 O  pz         
    13     -0.652550  1 O  pz         
 
 Vector   15  Occ=0.000000D+00  E= 1.434755D+00  Symmetry=a'
              MO Center=  6.2D-01,  2.4D-01,  3.2D-13, r^2= 1.4D+00
   Bfn.  Coefficient  Atom+Function         Bfn.  Coefficient  Atom+Function  
  ----- ------------  ---------------      ----- ------------  ---------------
     6      1.969086  1 O  s                  7      1.150635  1 O  px         
     2     -0.900993  1 O  s                  3     -0.801713  1 O  px         
    10     -0.712040  1 O  s                 11     -0.488285  1 O  px         
     8      0.360318  1 O  py                14     -0.285553  1 O  dxx        
    19     -0.285868  1 O  dzz                4     -0.263345  1 O  py         
 

 center of mass
 --------------
 x =  -0.02667655 y =   0.05965027 z =   0.00000000

 moments of inertia (a.u.)
 ------------------
          16.697282521203          -0.066245887643           0.000000000000
          -0.066245887643           5.478988665139           0.000000000000
           0.000000000000           0.000000000000          22.176271186342
 
  Mulliken analysis of the total density
  --------------------------------------

    Atom       Charge   Shell Charges
 -----------   ------   -------------------------------------------------------
    1 O    8     8.61   2.00  0.98  2.51  0.99  1.83  0.02  0.28  0.01
    2 H    1     0.67   0.27  0.40
    3 H    1     0.71   0.23  0.48
 
       Multipole analysis of the density wrt the origin
       ------------------------------------------------
 
     L   x y z        total         open         nuclear
     -   - - -        -----         ----         -------
     0   0 0 0     -0.000000      0.000000     10.000000
 
     1   1 0 0     -0.864033      0.000000     -1.777743
     1   0 1 0     -0.172839      0.000000      0.049336
     1   0 0 1      0.000000      0.000000      0.000000
 
     2   2 0 0     -4.629289      0.000000      5.234111
     2   1 1 0     -0.393812      0.000000     -0.130757
     2   1 0 1     -0.000000      0.000000      0.000000
     2   0 2 0     -0.658936      0.000000     16.499906
     2   0 1 1     -0.000000      0.000000      0.000000
     2   0 0 2     -6.664209      0.000000      0.000000
 

 Parallel integral file used       8 records with       0 large values

 Line search: 
     step= 1.00 grad=-7.1D-02 hess=-4.3D-03 energy=    -75.657774 mode=negative
 new step= 2.00                   predicted energy=    -75.742067

          --------
          Step   1
          --------
 
 
                         Geometry "geometry" -> "geometry"
                         ---------------------------------
 
 Output coordinates in angstroms (scale by  1.889725989 to convert to a.u.)
 
  No.       Tag          Charge          X              Y              Z
 ---- ---------------- ---------- -------------- -------------- --------------
    1 O                    8.0000    -0.04691969     0.07208321     0.00000000
    2 H                    1.0000    -0.89662656     1.12453041     0.00000000
    3 H                    1.0000    -0.60949780    -1.64898087     0.00000000
 
      Atomic Mass 
      ----------- 
 
      O                 15.994910
      H                  1.007825
 

 Effective nuclear repulsion energy (a.u.)       5.6575460600

            Nuclear Dipole moment (a.u.) 
            ----------------------------
        X                 Y               Z
 ---------------- ---------------- ----------------
    -3.5554852868     0.0986725282     0.0000000000
 
      Symmetry information
      --------------------
 
 Group name             Cs        
 Group number              2
 Group order               2
 No. of unique centers     3
 
      Symmetry unique atoms
 
     1    2    3
 
                                 NWChem SCF Module
                                 -----------------
 
 
                            water molecule optimization
 
 

  ao basis        = "ao basis"
  functions       =    23
  atoms           =     3
  closed shells   =     5
  open shells     =     0
  charge          =   0.00
  wavefunction    = RHF 
  input vectors   = ./nwc_h2o_hf_nosmd_ram.movecs
  output vectors  = ./nwc_h2o_hf_nosmd_ram.movecs
  use symmetry    = T
  symmetry adapt  = T


 Summary of "ao basis" -> "ao basis" (cartesian)
 ------------------------------------------------------------------------------
       Tag                 Description            Shells   Functions and Types
 ---------------- ------------------------------  ------  ---------------------
 O                          6-31+G*                  8       19   4s3p1d
 H                          6-31+G*                  2        2   2s


      Symmetry analysis of basis
      --------------------------
 
        a'         18
        a"          5
 

 Forming initial guess at       1.8s


 Loading old vectors from job with title :

water molecule optimization

 
      Symmetry analysis of molecular orbitals - initial
      -------------------------------------------------
 
  Numbering of irreducible representations: 
 
     1 a'          2 a"      
 
  Orbital symmetries:
 
     1 a'          2 a'          3 a"          4 a'          5 a'      
     6 a'          7 a'          8 a'          9 a"         10 a'      
    11 a'         12 a'         13 a'         14 a"         15 a'      
 

 Starting SCF solution at       1.8s



 ----------------------------------------------
         Quadratically convergent ROHF

 Convergence threshold     :          1.000E-04
 Maximum no. of iterations :           30
 Final Fock-matrix accuracy:          1.000E-07
 ----------------------------------------------


 #quartets = 3.081D+03 #integrals = 1.648D+04 #direct =  0.0% #cached =100.0%


 Integral file          = /scratch.global/lever046/nwchem/nwc_h2o_hf_nosmd_ram.aoints.0
 Record size in doubles =    65536    No. of integs per rec  =    43688
 Max. records in memory =        2    Max. records in file   = 53478791
 No. of bits per label  =        8    No. of bits per value  =       64


File balance: exchanges=     0  moved=     0  time=   0.0


              iter       energy          gnorm     gmax       time
             ----- ------------------- --------- --------- --------
                 1      -75.7323796361  2.40D-01  1.41D-01      0.6
                 2      -75.7370821532  1.47D-01  7.11D-02      0.6
                 3      -75.7387711443  1.32D-02  5.58D-03      0.6
                 4      -75.7388199089  1.70D-04  7.97D-05      0.6
                 5      -75.7388199162  7.50D-06  3.31D-06      0.6


       Final RHF  results 
       ------------------ 

         Total SCF energy =    -75.738819916173
      One-electron energy =   -116.142709351344
      Two-electron energy =     34.746343375155
 Nuclear repulsion energy =      5.657546060015

        Time for solution =      0.1s


 
       Symmetry analysis of molecular orbitals - final
       -----------------------------------------------
 
  Numbering of irreducible representations: 
 
     1 a'          2 a"      
 
  Orbital symmetries:
 
     1 a'          2 a'          3 a'          4 a"          5 a'      
     6 a'          7 a'          8 a"          9 a'         10 a'      
    11 a'         12 a'         13 a'         14 a"         15 a'      
 
             Final eigenvalues
             -----------------

              1      
    1  -20.6463
    2   -1.2130
    3   -0.5339
    4   -0.4943
    5   -0.4375
    6   -0.0114
    7    0.1368
    8    0.2589
    9    0.2612
   10    0.2874
   11    0.3075
   12    0.9841
   13    1.0137
   14    1.4145
   15    1.4400
 
                       ROHF Final Molecular Orbital Analysis
                       -------------------------------------
 
 Vector    2  Occ=2.000000D+00  E=-1.213029D+00  Symmetry=a'
              MO Center= -9.4D-02,  1.1D-01, -6.2D-17, r^2= 5.1D-01
   Bfn.  Coefficient  Atom+Function         Bfn.  Coefficient  Atom+Function  
  ----- ------------  ---------------      ----- ------------  ---------------
     6      0.529402  1 O  s                  2      0.518965  1 O  s          
     1     -0.225591  1 O  s          
 
 Vector    3  Occ=2.000000D+00  E=-5.339370D-01  Symmetry=a'
              MO Center= -3.0D-01,  2.8D-01, -1.4D-16, r^2= 1.2D+00
   Bfn.  Coefficient  Atom+Function         Bfn.  Coefficient  Atom+Function  
  ----- ------------  ---------------      ----- ------------  ---------------
     4     -0.350713  1 O  py                 3      0.329617  1 O  px         
     8     -0.263955  1 O  py                21     -0.253397  2 H  s          
    20     -0.239679  2 H  s                  7      0.228410  1 O  px         
 
 Vector    4  Occ=2.000000D+00  E=-4.942893D-01  Symmetry=a"
              MO Center= -5.4D-02,  7.5D-02, -9.3D-16, r^2= 6.5D-01
   Bfn.  Coefficient  Atom+Function         Bfn.  Coefficient  Atom+Function  
  ----- ------------  ---------------      ----- ------------  ---------------
     5      0.662189  1 O  pz                 9      0.437348  1 O  pz         
 
 Vector    5  Occ=2.000000D+00  E=-4.374735D-01  Symmetry=a'
              MO Center= -2.5D-01, -4.6D-01, -5.3D-17, r^2= 1.4D+00
   Bfn.  Coefficient  Atom+Function         Bfn.  Coefficient  Atom+Function  
  ----- ------------  ---------------      ----- ------------  ---------------
     3      0.407226  1 O  px                23     -0.305035  3 H  s          
     7      0.294562  1 O  px                 4      0.263297  1 O  py         
    22     -0.207115  3 H  s                  8      0.205139  1 O  py         
 
 Vector    6  Occ=0.000000D+00  E=-1.139967D-02  Symmetry=a'
              MO Center= -4.1D-01, -8.6D-01, -1.0D-15, r^2= 2.3D+00
   Bfn.  Coefficient  Atom+Function         Bfn.  Coefficient  Atom+Function  
  ----- ------------  ---------------      ----- ------------  ---------------
    23      0.730896  3 H  s                  6     -0.405789  1 O  s          
     3      0.270736  1 O  px                22      0.247274  3 H  s          
     7      0.244753  1 O  px                21      0.239022  2 H  s          
     4      0.237139  1 O  py                 8      0.223612  1 O  py         
 
 Vector    7  Occ=0.000000D+00  E= 1.368022D-01  Symmetry=a'
              MO Center= -6.8D-01,  7.1D-01,  8.7D-16, r^2= 2.3D+00
   Bfn.  Coefficient  Atom+Function         Bfn.  Coefficient  Atom+Function  
  ----- ------------  ---------------      ----- ------------  ---------------
    21      0.804614  2 H  s                  6     -0.646907  1 O  s          
     8     -0.497093  1 O  py                10      0.409474  1 O  s          
     4     -0.349608  1 O  py                23     -0.344175  3 H  s          
     7      0.243066  1 O  px                20      0.180858  2 H  s          
     3      0.173791  1 O  px         
 
 Vector    8  Occ=0.000000D+00  E= 2.588520D-01  Symmetry=a"
              MO Center= -4.7D-02,  7.2D-02, -1.2D-14, r^2= 5.0D+00
   Bfn.  Coefficient  Atom+Function         Bfn.  Coefficient  Atom+Function  
  ----- ------------  ---------------      ----- ------------  ---------------
    13      1.232272  1 O  pz                 9     -0.508489  1 O  pz         
     5     -0.207654  1 O  pz         
 
 Vector    9  Occ=0.000000D+00  E= 2.611935D-01  Symmetry=a'
              MO Center=  6.3D-01, -1.1D-01,  5.5D-15, r^2= 4.4D+00
   Bfn.  Coefficient  Atom+Function         Bfn.  Coefficient  Atom+Function  
  ----- ------------  ---------------      ----- ------------  ---------------
    11      1.268477  1 O  px                 7     -0.497207  1 O  px         
     6     -0.389692  1 O  s                 21      0.327060  2 H  s          
    10      0.317882  1 O  s                  3     -0.200136  1 O  px         
    12     -0.180695  1 O  py         
 
 Vector   10  Occ=0.000000D+00  E= 2.874397D-01  Symmetry=a'
              MO Center=  8.0D-02,  7.8D-01, -2.2D-14, r^2= 4.3D+00
   Bfn.  Coefficient  Atom+Function         Bfn.  Coefficient  Atom+Function  
  ----- ------------  ---------------      ----- ------------  ---------------
    10      1.732804  1 O  s                 21     -1.686678  2 H  s          
    12      1.428642  1 O  py                 6     -0.626806  1 O  s          
    11     -0.602666  1 O  px                23      0.173962  3 H  s          
 
 Vector   11  Occ=0.000000D+00  E= 3.074615D-01  Symmetry=a'
              MO Center= -3.2D-01, -3.7D-01,  2.6D-14, r^2= 4.6D+00
   Bfn.  Coefficient  Atom+Function         Bfn.  Coefficient  Atom+Function  
  ----- ------------  ---------------      ----- ------------  ---------------
    10      1.716104  1 O  s                 12     -1.256550  1 O  py         
    23     -1.065561  3 H  s                  6     -0.968987  1 O  s          
    11     -0.527634  1 O  px                 8      0.413827  1 O  py         
    21     -0.308838  2 H  s          
 
 Vector   12  Occ=0.000000D+00  E= 9.840886D-01  Symmetry=a'
              MO Center= -7.0D-01, -7.1D-01,  2.4D-15, r^2= 3.4D+00
   Bfn.  Coefficient  Atom+Function         Bfn.  Coefficient  Atom+Function  
  ----- ------------  ---------------      ----- ------------  ---------------
    23     -1.199520  3 H  s                 21     -1.179350  2 H  s          
     6      1.110178  1 O  s                 22      0.973778  3 H  s          
    20      0.645775  2 H  s                 10      0.551874  1 O  s          
     2     -0.529235  1 O  s                  7     -0.282156  1 O  px         
    11     -0.256776  1 O  px                 3      0.249239  1 O  px         
 
 Vector   13  Occ=0.000000D+00  E= 1.013653D+00  Symmetry=a'
              MO Center= -7.7D-01,  7.5D-02,  2.3D-15, r^2= 3.2D+00
   Bfn.  Coefficient  Atom+Function         Bfn.  Coefficient  Atom+Function  
  ----- ------------  ---------------      ----- ------------  ---------------
    21      1.557623  2 H  s                 23     -0.957233  3 H  s          
    20     -0.847211  2 H  s                 22      0.745665  3 H  s          
     8     -0.528940  1 O  py                12     -0.504244  1 O  py         
     4      0.451725  1 O  py                 6     -0.417212  1 O  s          
    10     -0.264155  1 O  s                 11      0.209832  1 O  px         
 
 Vector   14  Occ=0.000000D+00  E= 1.414471D+00  Symmetry=a"
              MO Center= -5.1D-02,  7.4D-02, -2.5D-13, r^2= 1.6D+00
   Bfn.  Coefficient  Atom+Function         Bfn.  Coefficient  Atom+Function  
  ----- ------------  ---------------      ----- ------------  ---------------
     9      1.442520  1 O  pz                 5     -0.976111  1 O  pz         
    13     -0.650689  1 O  pz         
 
 Vector   15  Occ=0.000000D+00  E= 1.439987D+00  Symmetry=a'
              MO Center=  5.1D-01,  1.8D-01,  3.1D-13, r^2= 1.4D+00
   Bfn.  Coefficient  Atom+Function         Bfn.  Coefficient  Atom+Function  
  ----- ------------  ---------------      ----- ------------  ---------------
     6      1.978954  1 O  s                  7      1.187992  1 O  px         
     2     -0.907147  1 O  s                  3     -0.825880  1 O  px         
    10     -0.724149  1 O  s                 11     -0.507478  1 O  px         
    14     -0.297811  1 O  dxx               19     -0.290308  1 O  dzz        
    17     -0.255074  1 O  dyy                8      0.215716  1 O  py         
 

 center of mass
 --------------
 x =  -0.23800638 y =   0.06551514 z =   0.00000000

 moments of inertia (a.u.)
 ------------------
          14.556874709441          -0.076018250146           0.000000000000
          -0.076018250146           3.335870120726           0.000000000000
           0.000000000000           0.000000000000          17.892744830167
 
  Mulliken analysis of the total density
  --------------------------------------

    Atom       Charge   Shell Charges
 -----------   ------   -------------------------------------------------------
    1 O    8     8.70   2.00  0.96  2.57  0.99  1.90  0.01  0.24  0.02
    2 H    1     0.62   0.31  0.31
    3 H    1     0.68   0.24  0.44
 
       Multipole analysis of the density wrt the origin
       ------------------------------------------------
 
     L   x y z        total         open         nuclear
     -   - - -        -----         ----         -------
     0   0 0 0     -0.000000      0.000000     10.000000
 
     1   1 0 0     -0.763788      0.000000     -3.555485
     1   0 1 0     -0.214959      0.000000      0.098673
     1   0 0 1      0.000000      0.000000      0.000000
 
     2   2 0 0     -4.764517      0.000000      4.260417
     2   1 1 0     -0.342354      0.000000     -0.108170
     2   1 0 1     -0.000000      0.000000      0.000000
     2   0 2 0     -0.610895      0.000000     14.374514
     2   0 1 1     -0.000000      0.000000      0.000000
     2   0 0 2     -6.509492      0.000000      0.000000
 

 Parallel integral file used       8 records with       0 large values

                              NWChem Gradients Module
                              -----------------------
 
 
                            water molecule optimization
 

  wavefunction    =   RHF     

  Using symmetry


                         RHF ENERGY GRADIENTS

    atom               coordinates                        gradient
                 x          y          z           x          y          z
   1 O      -0.088665   0.136218   0.000000    0.090173  -0.014560   0.000000
   2 H      -1.694379   2.125054   0.000000   -0.071087   0.117626   0.000000
   3 H      -1.151784  -3.116122   0.000000   -0.019087  -0.103066   0.000000
 
                 ----------------------------------------
                 |  Time  |  1-e(secs)   |  2-e(secs)   |
                 ----------------------------------------
                 |  CPU   |       0.00   |       0.00   |
                 ----------------------------------------
                 |  WALL  |       0.00   |       0.00   |
                 ----------------------------------------

  Step       Energy      Delta E   Gmax     Grms     Xrms     Xmax   Walltime
  ---- ---------------- -------- -------- -------- -------- -------- --------
@    1     -75.73881992 -1.6D-01  0.11763  0.06517  0.28312  0.50793      2.6
                                                                    

 Limiting step in negative mode    1  eval=-5.9D-02 grad=-1.9D-01 step= 9.0D-02
 Restricting large step in mode    2 eval= 7.6D-02 step=-7.2D-01 new=-3.0D-01
                                 NWChem SCF Module
                                 -----------------
 
 
                            water molecule optimization
 
 

  ao basis        = "ao basis"
  functions       =    23
  atoms           =     3
  closed shells   =     5
  open shells     =     0
  charge          =   0.00
  wavefunction    = RHF 
  input vectors   = ./nwc_h2o_hf_nosmd_ram.movecs
  output vectors  = ./nwc_h2o_hf_nosmd_ram.movecs
  use symmetry    = T
  symmetry adapt  = T


 Summary of "ao basis" -> "ao basis" (cartesian)
 ------------------------------------------------------------------------------
       Tag                 Description            Shells   Functions and Types
 ---------------- ------------------------------  ------  ---------------------
 O                          6-31+G*                  8       19   4s3p1d
 H                          6-31+G*                  2        2   2s


      Symmetry analysis of basis
      --------------------------
 
        a'         18
        a"          5
 

 Forming initial guess at       2.6s


 Loading old vectors from job with title :

water molecule optimization

 
      Symmetry analysis of molecular orbitals - initial
      -------------------------------------------------
 
  Numbering of irreducible representations: 
 
     1 a'          2 a"      
 
  Orbital symmetries:
 
     1 a'          2 a'          3 a'          4 a"          5 a'      
     6 a'          7 a'          8 a"          9 a'         10 a'      
    11 a'         12 a'         13 a'         14 a"         15 a'      
 

 Starting SCF solution at       2.6s



 ----------------------------------------------
         Quadratically convergent ROHF

 Convergence threshold     :          1.000E-04
 Maximum no. of iterations :           30
 Final Fock-matrix accuracy:          1.000E-07
 ----------------------------------------------


 #quartets = 3.081D+03 #integrals = 1.648D+04 #direct =  0.0% #cached =100.0%


 Integral file          = /scratch.global/lever046/nwchem/nwc_h2o_hf_nosmd_ram.aoints.0
 Record size in doubles =    65536    No. of integs per rec  =    43688
 Max. records in memory =        2    Max. records in file   = 53478791
 No. of bits per label  =        8    No. of bits per value  =       64


File balance: exchanges=     0  moved=     0  time=   0.0


              iter       energy          gnorm     gmax       time
             ----- ------------------- --------- --------- --------
                 1      -75.7601925164  1.54D-01  6.81D-02      0.8
                 2      -75.7633650060  8.72D-03  3.68D-03      0.8
                 3      -75.7633879873  7.71D-05  2.95D-05      0.8


       Final RHF  results 
       ------------------ 

         Total SCF energy =    -75.763387987314
      One-electron energy =   -116.898769190641
      Two-electron energy =     35.143749364087
 Nuclear repulsion energy =      5.991631839241

        Time for solution =      0.1s


 
       Symmetry analysis of molecular orbitals - final
       -----------------------------------------------
 
  Numbering of irreducible representations: 
 
     1 a'          2 a"      
 
  Orbital symmetries:
 
     1 a'          2 a'          3 a'          4 a"          5 a'      
     6 a'          7 a'          8 a"          9 a'         10 a'      
    11 a'         12 a'         13 a'         14 a"         15 a'      
 
             Final eigenvalues
             -----------------

              1      
    1  -20.6224
    2   -1.2118
    3   -0.5527
    4   -0.4816
    5   -0.4372
    6   -0.0104
    7    0.1701
    8    0.2608
    9    0.2630
   10    0.2931
   11    0.3090
   12    0.9733
   13    1.0525
   14    1.4229
   15    1.4446
 
                       ROHF Final Molecular Orbital Analysis
                       -------------------------------------
 
 Vector    2  Occ=2.000000D+00  E=-1.211753D+00  Symmetry=a'
              MO Center= -2.3D-01,  1.1D-01,  2.6D-16, r^2= 5.2D-01
   Bfn.  Coefficient  Atom+Function         Bfn.  Coefficient  Atom+Function  
  ----- ------------  ---------------      ----- ------------  ---------------
     6      0.523852  1 O  s                  2      0.510368  1 O  s          
     1     -0.223388  1 O  s          
 
 Vector    3  Occ=2.000000D+00  E=-5.526897D-01  Symmetry=a'
              MO Center= -3.5D-01,  1.7D-01,  8.0D-16, r^2= 1.2D+00
   Bfn.  Coefficient  Atom+Function         Bfn.  Coefficient  Atom+Function  
  ----- ------------  ---------------      ----- ------------  ---------------
     4      0.386378  1 O  py                 8      0.290249  1 O  py         
     3     -0.275547  1 O  px                20      0.239941  2 H  s          
    21      0.222519  2 H  s                  7     -0.185741  1 O  px         
 
 Vector    4  Occ=2.000000D+00  E=-4.815691D-01  Symmetry=a"
              MO Center= -1.9D-01,  5.5D-02, -1.6D-15, r^2= 6.6D-01
   Bfn.  Coefficient  Atom+Function         Bfn.  Coefficient  Atom+Function  
  ----- ------------  ---------------      ----- ------------  ---------------
     5      0.654056  1 O  pz                 9      0.441931  1 O  pz         
 
 Vector    5  Occ=2.000000D+00  E=-4.372140D-01  Symmetry=a'
              MO Center= -3.0D-01, -3.6D-01, -3.4D-16, r^2= 1.3D+00
   Bfn.  Coefficient  Atom+Function         Bfn.  Coefficient  Atom+Function  
  ----- ------------  ---------------      ----- ------------  ---------------
     3      0.473548  1 O  px                 7      0.341305  1 O  px         
    23     -0.275858  3 H  s                  4      0.202440  1 O  py         
    22     -0.190850  3 H  s                  8      0.163001  1 O  py         
 
 Vector    6  Occ=0.000000D+00  E=-1.044859D-02  Symmetry=a'
              MO Center= -4.4D-01, -8.8D-01, -7.5D-16, r^2= 2.3D+00
   Bfn.  Coefficient  Atom+Function         Bfn.  Coefficient  Atom+Function  
  ----- ------------  ---------------      ----- ------------  ---------------
    23      0.746010  3 H  s                  6     -0.463468  1 O  s          
    21      0.275879  2 H  s                 22      0.252953  3 H  s          
     3      0.250254  1 O  px                 7      0.223593  1 O  px         
     4      0.207586  1 O  py                 8      0.207079  1 O  py         
 
 Vector    7  Occ=0.000000D+00  E= 1.701017D-01  Symmetry=a'
              MO Center= -6.7D-01,  7.7D-01, -4.6D-16, r^2= 2.7D+00
   Bfn.  Coefficient  Atom+Function         Bfn.  Coefficient  Atom+Function  
  ----- ------------  ---------------      ----- ------------  ---------------
     6      0.750401  1 O  s                 10     -0.658087  1 O  s          
     8      0.563751  1 O  py                21     -0.562587  2 H  s          
     4      0.341034  1 O  py                12     -0.328757  1 O  py         
    23      0.314609  3 H  s                  7     -0.193891  1 O  px         
 
 Vector    8  Occ=0.000000D+00  E= 2.608279D-01  Symmetry=a"
              MO Center= -1.8D-01,  5.1D-02, -1.4D-14, r^2= 5.0D+00
   Bfn.  Coefficient  Atom+Function         Bfn.  Coefficient  Atom+Function  
  ----- ------------  ---------------      ----- ------------  ---------------
    13      1.233215  1 O  pz                 9     -0.516355  1 O  pz         
     5     -0.210884  1 O  pz         
 
 Vector    9  Occ=0.000000D+00  E= 2.629897D-01  Symmetry=a'
              MO Center=  1.1D-01, -1.3D-01,  1.2D-15, r^2= 4.9D+00
   Bfn.  Coefficient  Atom+Function         Bfn.  Coefficient  Atom+Function  
  ----- ------------  ---------------      ----- ------------  ---------------
    11      1.325813  1 O  px                21      0.542743  2 H  s          
     7     -0.489112  1 O  px                 6     -0.219072  1 O  s          
    12     -0.204151  1 O  py                 3     -0.196675  1 O  px         
 
 Vector   10  Occ=0.000000D+00  E= 2.931085D-01  Symmetry=a'
              MO Center= -5.0D-01,  2.6D-01,  4.7D-16, r^2= 3.9D+00
   Bfn.  Coefficient  Atom+Function         Bfn.  Coefficient  Atom+Function  
  ----- ------------  ---------------      ----- ------------  ---------------
    10      2.369470  1 O  s                 21     -1.550686  2 H  s          
     6     -0.966183  1 O  s                 23     -0.418453  3 H  s          
    11     -0.410927  1 O  px                 8      0.309999  1 O  py         
    12      0.274147  1 O  py         
 
 Vector   11  Occ=0.000000D+00  E= 3.090011D-01  Symmetry=a'
              MO Center=  3.6D-01,  1.2D-01,  5.0D-15, r^2= 5.0D+00
   Bfn.  Coefficient  Atom+Function         Bfn.  Coefficient  Atom+Function  
  ----- ------------  ---------------      ----- ------------  ---------------
    12      2.106778  1 O  py                21     -1.326419  2 H  s          
    23      1.139014  3 H  s                  6      0.504451  1 O  s          
     8     -0.204998  1 O  py                 7     -0.163187  1 O  px         
 
 Vector   12  Occ=0.000000D+00  E= 9.733459D-01  Symmetry=a'
              MO Center= -5.7D-01, -1.5D+00,  1.2D-15, r^2= 2.2D+00
   Bfn.  Coefficient  Atom+Function         Bfn.  Coefficient  Atom+Function  
  ----- ------------  ---------------      ----- ------------  ---------------
    23      1.499426  3 H  s                 22     -1.147702  3 H  s          
     6     -0.961584  1 O  s                 21      0.518027  2 H  s          
     2      0.459322  1 O  s                 10     -0.423635  1 O  s          
    20     -0.324950  2 H  s                  8      0.308829  1 O  py         
    19      0.198873  1 O  dzz                4     -0.191658  1 O  py         
 
 Vector   13  Occ=0.000000D+00  E= 1.052496D+00  Symmetry=a'
              MO Center= -7.4D-01,  8.3D-01,  1.0D-14, r^2= 2.0D+00
   Bfn.  Coefficient  Atom+Function         Bfn.  Coefficient  Atom+Function  
  ----- ------------  ---------------      ----- ------------  ---------------
    21      2.067704  2 H  s                 20     -1.012733  2 H  s          
     6     -0.826810  1 O  s                 12     -0.714367  1 O  py         
    23     -0.604120  3 H  s                  8     -0.502948  1 O  py         
    10     -0.497893  1 O  s                  4      0.481181  1 O  py         
     2      0.384357  1 O  s                 22      0.346664  3 H  s          
 
 Vector   14  Occ=0.000000D+00  E= 1.422902D+00  Symmetry=a"
              MO Center= -1.8D-01,  5.4D-02, -2.4D-13, r^2= 1.6D+00
   Bfn.  Coefficient  Atom+Function         Bfn.  Coefficient  Atom+Function  
  ----- ------------  ---------------      ----- ------------  ---------------
     9      1.438291  1 O  pz                 5     -0.980893  1 O  pz         
    13     -0.647899  1 O  pz         
 
 Vector   15  Occ=0.000000D+00  E= 1.444552D+00  Symmetry=a'
              MO Center=  2.6D-01,  1.1D-01,  2.2D-13, r^2= 1.5D+00
   Bfn.  Coefficient  Atom+Function         Bfn.  Coefficient  Atom+Function  
  ----- ------------  ---------------      ----- ------------  ---------------
     6      1.439239  1 O  s                  7      1.301161  1 O  px         
     3     -0.905097  1 O  px                 2     -0.660581  1 O  s          
    11     -0.581354  1 O  px                10     -0.488129  1 O  s          
    14     -0.228307  1 O  dxx               19     -0.217564  1 O  dzz        
     8      0.181436  1 O  py                17     -0.174664  1 O  dyy        
 

 center of mass
 --------------
 x =  -0.44732021 y =   0.03239106 z =   0.00000000

 moments of inertia (a.u.)
 ------------------
          14.472515400685           0.350770010997           0.000000000000
           0.350770010997           1.767333822706           0.000000000000
           0.000000000000           0.000000000000          16.239849223391
 
  Mulliken analysis of the total density
  --------------------------------------

    Atom       Charge   Shell Charges
 -----------   ------   -------------------------------------------------------
    1 O    8     8.78   2.00  0.94  2.62  0.99  1.95  0.01  0.24  0.03
    2 H    1     0.58   0.33  0.25
    3 H    1     0.64   0.23  0.40
 
       Multipole analysis of the density wrt the origin
       ------------------------------------------------
 
     L   x y z        total         open         nuclear
     -   - - -        -----         ----         -------
     0   0 0 0     -0.000000      0.000000     10.000000
 
     1   1 0 0     -0.598701      0.000000     -5.316269
     1   0 1 0     -0.272751      0.000000     -0.179973
     1   0 0 1      0.000000      0.000000      0.000000
 
     2   2 0 0     -5.107770      0.000000      4.418503
     2   1 1 0     -0.350512      0.000000     -0.348822
     2   1 0 1     -0.000000      0.000000      0.000000
     2   0 2 0      0.080611      0.000000     14.305738
     2   0 1 1     -0.000000      0.000000      0.000000
     2   0 0 2     -6.464829      0.000000      0.000000
 

 Parallel integral file used       8 records with       0 large values

 Line search: 
     step= 1.00 grad=-3.3D-02 hess= 8.7D-03 energy=    -75.763388 mode=downhill
 new step= 1.91                   predicted energy=    -75.770644

          --------
          Step   2
          --------
 
 
                         Geometry "geometry" -> "geometry"
                         ---------------------------------
 
 Output coordinates in angstroms (scale by  1.889725989 to convert to a.u.)
 
  No.       Tag          Charge          X              Y              Z
 ---- ---------------- ---------- -------------- -------------- --------------
    1 O                    8.0000    -0.30167607     0.03176782     0.00000000
    2 H                    1.0000    -0.74924480     1.14893238     0.00000000
    3 H                    1.0000    -0.50212319    -1.63306745     0.00000000
 
      Atomic Mass 
      ----------- 
 
      O                 15.994910
      H                  1.007825
 

 Effective nuclear repulsion energy (a.u.)       6.2317153519

            Nuclear Dipole moment (a.u.) 
            ----------------------------
        X                 Y               Z
 ---------------- ---------------- ----------------
    -6.9254235413    -0.4346228031     0.0000000000
 
      Symmetry information
      --------------------
 
 Group name             Cs        
 Group number              2
 Group order               2
 No. of unique centers     3
 
      Symmetry unique atoms
 
     1    2    3
 
                                 NWChem SCF Module
                                 -----------------
 
 
                            water molecule optimization
 
 

  ao basis        = "ao basis"
  functions       =    23
  atoms           =     3
  closed shells   =     5
  open shells     =     0
  charge          =   0.00
  wavefunction    = RHF 
  input vectors   = ./nwc_h2o_hf_nosmd_ram.movecs
  output vectors  = ./nwc_h2o_hf_nosmd_ram.movecs
  use symmetry    = T
  symmetry adapt  = T


 Summary of "ao basis" -> "ao basis" (cartesian)
 ------------------------------------------------------------------------------
       Tag                 Description            Shells   Functions and Types
 ---------------- ------------------------------  ------  ---------------------
 O                          6-31+G*                  8       19   4s3p1d
 H                          6-31+G*                  2        2   2s


      Symmetry analysis of basis
      --------------------------
 
        a'         18
        a"          5
 

 Forming initial guess at       3.1s


 Loading old vectors from job with title :

water molecule optimization

 
      Symmetry analysis of molecular orbitals - initial
      -------------------------------------------------
 
  Numbering of irreducible representations: 
 
     1 a'          2 a"      
 
  Orbital symmetries:
 
     1 a'          2 a'          3 a'          4 a"          5 a'      
     6 a'          7 a'          8 a"          9 a'         10 a'      
    11 a'         12 a'         13 a'         14 a"         15 a'      
 

 Starting SCF solution at       3.2s



 ----------------------------------------------
         Quadratically convergent ROHF

 Convergence threshold     :          1.000E-04
 Maximum no. of iterations :           30
 Final Fock-matrix accuracy:          1.000E-07
 ----------------------------------------------


 #quartets = 3.081D+03 #integrals = 1.648D+04 #direct =  0.0% #cached =100.0%


 Integral file          = /scratch.global/lever046/nwchem/nwc_h2o_hf_nosmd_ram.aoints.0
 Record size in doubles =    65536    No. of integs per rec  =    43688
 Max. records in memory =        2    Max. records in file   = 53478791
 No. of bits per label  =        8    No. of bits per value  =       64


File balance: exchanges=     0  moved=     0  time=   0.0


              iter       energy          gnorm     gmax       time
             ----- ------------------- --------- --------- --------
                 1      -75.7661468433  1.47D-01  6.24D-02      0.9
                 2      -75.7693428020  1.14D-02  6.37D-03      0.9
                 3      -75.7693999645  2.99D-04  1.39D-04      0.9
                 4      -75.7693999780  9.20D-06  3.64D-06      0.9


       Final RHF  results 
       ------------------ 

         Total SCF energy =    -75.769399978043
      One-electron energy =   -117.487037792713
      Two-electron energy =     35.485922462811
 Nuclear repulsion energy =      6.231715351858

        Time for solution =      0.1s


 
       Symmetry analysis of molecular orbitals - final
       -----------------------------------------------
 
  Numbering of irreducible representations: 
 
     1 a'          2 a"      
 
  Orbital symmetries:
 
     1 a'          2 a'          3 a'          4 a"          5 a'      
     6 a'          7 a'          8 a"          9 a'         10 a'      
    11 a'         12 a'         13 a'         14 a"         15 a'      
 
             Final eigenvalues
             -----------------

              1      
    1  -20.5947
    2   -1.2048
    3   -0.5612
    4   -0.4650
    5   -0.4319
    6   -0.0176
    7    0.1878
    8    0.2640
    9    0.2664
   10    0.2917
   11    0.3373
   12    0.9573
   13    1.1049
   14    1.4347
   15    1.4492
 
                       ROHF Final Molecular Orbital Analysis
                       -------------------------------------
 
 Vector    2  Occ=2.000000D+00  E=-1.204780D+00  Symmetry=a'
              MO Center= -3.4D-01,  1.0D-01,  6.2D-16, r^2= 5.3D-01
   Bfn.  Coefficient  Atom+Function         Bfn.  Coefficient  Atom+Function  
  ----- ------------  ---------------      ----- ------------  ---------------
     6      0.519769  1 O  s                  2      0.502360  1 O  s          
     1     -0.221531  1 O  s          
 
 Vector    3  Occ=2.000000D+00  E=-5.612344D-01  Symmetry=a'
              MO Center= -4.1D-01,  6.6D-02,  1.4D-15, r^2= 1.2D+00
   Bfn.  Coefficient  Atom+Function         Bfn.  Coefficient  Atom+Function  
  ----- ------------  ---------------      ----- ------------  ---------------
     4      0.407792  1 O  py                 8      0.307984  1 O  py         
    20      0.236874  2 H  s                  3     -0.218671  1 O  px         
    21      0.193029  2 H  s                 23     -0.150595  3 H  s          
 
 Vector    4  Occ=2.000000D+00  E=-4.649723D-01  Symmetry=a"
              MO Center= -3.1D-01,  3.6D-02, -2.1D-15, r^2= 6.8D-01
   Bfn.  Coefficient  Atom+Function         Bfn.  Coefficient  Atom+Function  
  ----- ------------  ---------------      ----- ------------  ---------------
     5      0.645182  1 O  pz                 9      0.445847  1 O  pz         
 
 Vector    5  Occ=2.000000D+00  E=-4.319334D-01  Symmetry=a'
              MO Center= -3.6D-01, -2.5D-01, -4.7D-16, r^2= 1.2D+00
   Bfn.  Coefficient  Atom+Function         Bfn.  Coefficient  Atom+Function  
  ----- ------------  ---------------      ----- ------------  ---------------
     3      0.530474  1 O  px                 7      0.381948  1 O  px         
    23     -0.238506  3 H  s                 22     -0.164627  3 H  s          
 
 Vector    6  Occ=0.000000D+00  E=-1.759502D-02  Symmetry=a'
              MO Center= -4.5D-01, -9.3D-01, -5.1D-16, r^2= 2.4D+00
   Bfn.  Coefficient  Atom+Function         Bfn.  Coefficient  Atom+Function  
  ----- ------------  ---------------      ----- ------------  ---------------
    23      0.757553  3 H  s                  6     -0.502455  1 O  s          
    21      0.304572  2 H  s                 22      0.264812  3 H  s          
     3      0.213427  1 O  px                 8      0.190292  1 O  py         
     7      0.184588  1 O  px                 4      0.182386  1 O  py         
 
 Vector    7  Occ=0.000000D+00  E= 1.878403D-01  Symmetry=a'
              MO Center= -6.4D-01,  8.2D-01, -2.6D-15, r^2= 3.1D+00
   Bfn.  Coefficient  Atom+Function         Bfn.  Coefficient  Atom+Function  
  ----- ------------  ---------------      ----- ------------  ---------------
    10      0.861108  1 O  s                  6     -0.766699  1 O  s          
    12      0.661971  1 O  py                 8     -0.566224  1 O  py         
     4     -0.310708  1 O  py                11     -0.225851  1 O  px         
    21      0.222951  2 H  s                 23     -0.185396  3 H  s          
 
 Vector    8  Occ=0.000000D+00  E= 2.640420D-01  Symmetry=a"
              MO Center= -3.0D-01,  3.2D-02, -1.5D-14, r^2= 5.0D+00
   Bfn.  Coefficient  Atom+Function         Bfn.  Coefficient  Atom+Function  
  ----- ------------  ---------------      ----- ------------  ---------------
    13      1.234337  1 O  pz                 9     -0.526098  1 O  pz         
     5     -0.214581  1 O  pz         
 
 Vector    9  Occ=0.000000D+00  E= 2.663952D-01  Symmetry=a'
              MO Center= -2.5D-01, -2.7D-02, -3.1D-16, r^2= 4.9D+00
   Bfn.  Coefficient  Atom+Function         Bfn.  Coefficient  Atom+Function  
  ----- ------------  ---------------      ----- ------------  ---------------
    11      1.278075  1 O  px                 7     -0.505429  1 O  px         
    21      0.445325  2 H  s                  3     -0.206948  1 O  px         
     8     -0.179046  1 O  py                10     -0.155104  1 O  s          
 
 Vector   10  Occ=0.000000D+00  E= 2.917074D-01  Symmetry=a'
              MO Center= -3.4D-01, -1.9D-01,  1.6D-14, r^2= 4.2D+00
   Bfn.  Coefficient  Atom+Function         Bfn.  Coefficient  Atom+Function  
  ----- ------------  ---------------      ----- ------------  ---------------
    10      2.184055  1 O  s                  6     -1.022131  1 O  s          
    21     -0.918162  2 H  s                 23     -0.734600  3 H  s          
    12     -0.509793  1 O  py                 8      0.392278  1 O  py         
 
 Vector   11  Occ=0.000000D+00  E= 3.373332D-01  Symmetry=a'
              MO Center=  1.3D-01,  4.2D-01, -1.3D-14, r^2= 4.7D+00
   Bfn.  Coefficient  Atom+Function         Bfn.  Coefficient  Atom+Function  
  ----- ------------  ---------------      ----- ------------  ---------------
    12      2.317342  1 O  py                21     -2.266395  2 H  s          
    23      1.222102  3 H  s                 10      0.626615  1 O  s          
     6      0.393890  1 O  s                 11     -0.247160  1 O  px         
     7     -0.173671  1 O  px         
 
 Vector   12  Occ=0.000000D+00  E= 9.573041D-01  Symmetry=a'
              MO Center= -5.2D-01, -1.5D+00,  5.4D-15, r^2= 2.1D+00
   Bfn.  Coefficient  Atom+Function         Bfn.  Coefficient  Atom+Function  
  ----- ------------  ---------------      ----- ------------  ---------------
    23      1.583201  3 H  s                 22     -1.138516  3 H  s          
     6     -0.935571  1 O  s                  2      0.459644  1 O  s          
    10     -0.428662  1 O  s                 21      0.402190  2 H  s          
     8      0.345417  1 O  py                20     -0.325090  2 H  s          
    12      0.252390  1 O  py                 4     -0.204324  1 O  py         
 
 Vector   13  Occ=0.000000D+00  E= 1.104923D+00  Symmetry=a'
              MO Center= -6.6D-01,  8.5D-01,  9.5D-15, r^2= 1.9D+00
   Bfn.  Coefficient  Atom+Function         Bfn.  Coefficient  Atom+Function  
  ----- ------------  ---------------      ----- ------------  ---------------
    21      2.333257  2 H  s                 20     -1.025827  2 H  s          
    12     -0.979772  1 O  py                 6     -0.865754  1 O  s          
    23     -0.750884  3 H  s                 10     -0.574575  1 O  s          
     8     -0.548322  1 O  py                 4      0.528661  1 O  py         
     2      0.384351  1 O  s                 22      0.325311  3 H  s          
 
 Vector   14  Occ=0.000000D+00  E= 1.434740D+00  Symmetry=a"
              MO Center= -3.0D-01,  3.5D-02, -2.2D-13, r^2= 1.6D+00
   Bfn.  Coefficient  Atom+Function         Bfn.  Coefficient  Atom+Function  
  ----- ------------  ---------------      ----- ------------  ---------------
     9      1.433586  1 O  pz                 5     -0.985959  1 O  pz         
    13     -0.644353  1 O  pz         
 
 Vector   15  Occ=0.000000D+00  E= 1.449204D+00  Symmetry=a'
              MO Center= -6.4D-02,  5.3D-02,  1.0D-13, r^2= 1.5D+00
   Bfn.  Coefficient  Atom+Function         Bfn.  Coefficient  Atom+Function  
  ----- ------------  ---------------      ----- ------------  ---------------
     7      1.388545  1 O  px                 3     -0.966188  1 O  px         
     6      0.743783  1 O  s                 11     -0.629198  1 O  px         
     2     -0.342420  1 O  s                 10     -0.209576  1 O  s          
 

 center of mass
 --------------
 x =  -0.63860906 y =   0.00211945 z =   0.00000000

 moments of inertia (a.u.)
 ------------------
          14.406645228405           0.669976009443           0.000000000000
           0.669976009443           0.780980768356           0.000000000000
           0.000000000000           0.000000000000          15.187625996761
 
  Mulliken analysis of the total density
[...]


 Starting SCF solution at     123.1s



 ----------------------------------------------
         Quadratically convergent ROHF

 Convergence threshold     :          1.000E-04
 Maximum no. of iterations :           30
 Final Fock-matrix accuracy:          1.000E-07
 ----------------------------------------------


 #quartets = 3.081D+03 #integrals = 1.648D+04 #direct =  0.0% #cached =100.0%


 Integral file          = /scratch.global/lever046/nwchem/nwc_h2o_hf_nosmd_ram.aoints.0
 Record size in doubles =    65536    No. of integs per rec  =    43688
 Max. records in memory =        2    Max. records in file   = 53469168
 No. of bits per label  =        8    No. of bits per value  =       64


File balance: exchanges=     0  moved=     0  time=   0.0


              iter       energy          gnorm     gmax       time
             ----- ------------------- --------- --------- --------
                 1      -76.0176631537  2.43D-02  1.07D-02      8.4
                 2      -76.0177070477  1.22D-04  4.30D-05      8.4
                 3      -76.0177070496  1.94D-06  9.04D-07      8.4


       Final RHF  results 
       ------------------ 

         Total SCF energy =    -76.017707049566
      One-electron energy =   -123.075705353906
      Two-electron energy =     37.774610172927
 Nuclear repulsion energy =      9.283388131413

        Time for solution =      0.1s


             Final eigenvalues
             -----------------

              1      
    1  -20.5782
    2   -1.3609
    3   -0.7318
    4   -0.5828
    5   -0.5094
    6    0.1466
    7    0.2190
    8    0.2508
    9    0.2525
   10    0.3594
   11    0.3877
   12    1.2475
   13    1.3478
   14    1.3898
   15    1.4046
 
                       ROHF Final Molecular Orbital Analysis
                       -------------------------------------
 
 Vector    2  Occ=2.000000D+00  E=-1.360930D+00
              MO Center= -3.1D-01, -1.2D-01,  2.6D-15, r^2= 5.0D-01
   Bfn.  Coefficient  Atom+Function         Bfn.  Coefficient  Atom+Function  
  ----- ------------  ---------------      ----- ------------  ---------------
     2      0.479547  1 O  s                  6      0.434270  1 O  s          
     1     -0.209514  1 O  s          
 
 Vector    3  Occ=2.000000D+00  E=-7.318280D-01
              MO Center= -3.5D-01, -1.2D-01,  8.4D-16, r^2= 7.6D-01
   Bfn.  Coefficient  Atom+Function         Bfn.  Coefficient  Atom+Function  
  ----- ------------  ---------------      ----- ------------  ---------------
     4      0.508657  1 O  py                 8      0.301085  1 O  py         
    22     -0.233353  3 H  s                 20      0.231522  2 H  s          
 
 Vector    4  Occ=2.000000D+00  E=-5.827983D-01
              MO Center= -7.4D-02, -8.4D-02, -2.0D-15, r^2= 7.1D-01
   Bfn.  Coefficient  Atom+Function         Bfn.  Coefficient  Atom+Function  
  ----- ------------  ---------------      ----- ------------  ---------------
     3      0.557115  1 O  px                 7      0.378039  1 O  px         
     6      0.264821  1 O  s                  2      0.169970  1 O  s          
 
 Vector    5  Occ=2.000000D+00  E=-5.094422D-01
              MO Center= -1.6D-01, -9.9D-02, -7.0D-15, r^2= 6.7D-01
   Bfn.  Coefficient  Atom+Function         Bfn.  Coefficient  Atom+Function  
  ----- ------------  ---------------      ----- ------------  ---------------
     5      0.638524  1 O  pz                 9      0.466067  1 O  pz         
 
 Vector    6  Occ=0.000000D+00  E= 1.466290D-01
              MO Center= -1.0D+00, -2.3D-01,  1.7D-14, r^2= 3.6D+00
   Bfn.  Coefficient  Atom+Function         Bfn.  Coefficient  Atom+Function  
  ----- ------------  ---------------      ----- ------------  ---------------
    10      1.865888  1 O  s                  6     -0.943823  1 O  s          
    11     -0.710169  1 O  px                23     -0.377569  3 H  s          
    21     -0.357870  2 H  s                  7      0.188317  1 O  px         
     3      0.154546  1 O  px         
 
 Vector    7  Occ=0.000000D+00  E= 2.190223D-01
              MO Center=  4.2D-02, -6.0D-02,  1.2D-17, r^2= 5.2D+00
   Bfn.  Coefficient  Atom+Function         Bfn.  Coefficient  Atom+Function  
  ----- ------------  ---------------      ----- ------------  ---------------
    12      1.426378  1 O  py                 8     -0.428270  1 O  py         
    23      0.341166  3 H  s                 21     -0.320963  2 H  s          
    11     -0.203778  1 O  px                 4     -0.180612  1 O  py         
 
 Vector    8  Occ=0.000000D+00  E= 2.507759D-01
              MO Center=  6.7D-01,  1.5D-02,  2.0D-13, r^2= 4.3D+00
   Bfn.  Coefficient  Atom+Function         Bfn.  Coefficient  Atom+Function  
  ----- ------------  ---------------      ----- ------------  ---------------
    11      1.320767  1 O  px                 6     -0.882189  1 O  s          
    21      0.536072  2 H  s                 23      0.526223  3 H  s          
     7     -0.319384  1 O  px                12      0.185800  1 O  py         
 
 Vector    9  Occ=0.000000D+00  E= 2.525498D-01
              MO Center= -1.4D-01, -9.6D-02, -2.2D-13, r^2= 5.0D+00
   Bfn.  Coefficient  Atom+Function         Bfn.  Coefficient  Atom+Function  
  ----- ------------  ---------------      ----- ------------  ---------------
    13      1.234363  1 O  pz                 9     -0.517095  1 O  pz         
     5     -0.207615  1 O  pz         
 
 Vector   10  Occ=0.000000D+00  E= 3.593820D-01
              MO Center= -5.0D-01, -5.8D-02,  3.0D-16, r^2= 3.1D+00
   Bfn.  Coefficient  Atom+Function         Bfn.  Coefficient  Atom+Function  
  ----- ------------  ---------------      ----- ------------  ---------------
    21      2.239116  2 H  s                 23     -1.936797  3 H  s          
    12     -1.187848  1 O  py                 8     -0.767632  1 O  py         
     4     -0.266833  1 O  py                11      0.237749  1 O  px         
    10     -0.201796  1 O  s                  7      0.157357  1 O  px         
 
 Vector   11  Occ=0.000000D+00  E= 3.877273D-01
              MO Center= -7.2D-01, -2.7D-01, -2.9D-15, r^2= 3.4D+00
   Bfn.  Coefficient  Atom+Function         Bfn.  Coefficient  Atom+Function  
  ----- ------------  ---------------      ----- ------------  ---------------
    10      3.191163  1 O  s                 23     -2.722749  3 H  s          
    21     -2.421675  2 H  s                  6      1.132025  1 O  s          
    11     -0.975413  1 O  px                 7     -0.704008  1 O  px         
    12     -0.222208  1 O  py                 3     -0.213595  1 O  px         
     8     -0.162543  1 O  py         
 
 Vector   12  Occ=0.000000D+00  E= 1.247541D+00
              MO Center= -4.4D-01, -8.5D-02,  2.6D-16, r^2= 1.9D+00
   Bfn.  Coefficient  Atom+Function         Bfn.  Coefficient  Atom+Function  
  ----- ------------  ---------------      ----- ------------  ---------------
    21      1.693305  2 H  s                 23     -1.501107  3 H  s          
    12     -0.946608  1 O  py                20     -0.899053  2 H  s          
    22      0.837498  3 H  s                 15      0.450635  1 O  dxy        
     4      0.339595  1 O  py                 8      0.181670  1 O  py         
    11      0.173237  1 O  px         
 
 Vector   13  Occ=0.000000D+00  E= 1.347764D+00
              MO Center= -6.4D-01, -1.7D-01,  6.1D-15, r^2= 1.8D+00
   Bfn.  Coefficient  Atom+Function         Bfn.  Coefficient  Atom+Function  
  ----- ------------  ---------------      ----- ------------  ---------------
     6      2.538646  1 O  s                 23     -2.037954  3 H  s          
    21     -1.917919  2 H  s                 10      1.449744  1 O  s          
     2     -1.108835  1 O  s                 22      0.752172  3 H  s          
    11     -0.707591  1 O  px                20      0.652600  2 H  s          
     3      0.434905  1 O  px                19     -0.430826  1 O  dzz        
 
 Vector   14  Occ=0.000000D+00  E= 1.389844D+00
              MO Center= -6.5D-02, -1.3D-01, -1.2D-15, r^2= 1.5D+00
   Bfn.  Coefficient  Atom+Function         Bfn.  Coefficient  Atom+Function  
  ----- ------------  ---------------      ----- ------------  ---------------
     8      1.660822  1 O  py                 4     -0.983044  1 O  py         
    23      0.483444  3 H  s                 12     -0.426519  1 O  py         
     6     -0.268307  1 O  s                 21     -0.246035  2 H  s          
    22      0.150190  3 H  s          
 
 Vector   15  Occ=0.000000D+00  E= 1.404646D+00
              MO Center= -1.5D-01, -9.7D-02,  5.0D-14, r^2= 1.6D+00
   Bfn.  Coefficient  Atom+Function         Bfn.  Coefficient  Atom+Function  
  ----- ------------  ---------------      ----- ------------  ---------------
     9      1.429273  1 O  pz                 5     -0.991749  1 O  pz         
    13     -0.647131  1 O  pz         
 

 center of mass
 --------------
 x =  -0.39046329 y =  -0.19769908 z =   0.00000000

 moments of inertia (a.u.)
 ------------------
           4.098609984237           0.327932492766           0.000000000000
           0.327932492766           2.106408389883           0.000000000000
           0.000000000000           0.000000000000           6.205018374121
 
  Mulliken analysis of the total density
  --------------------------------------

    Atom       Charge   Shell Charges
 -----------   ------   -------------------------------------------------------
    1 O    8     8.99   2.00  0.91  2.91  0.89  1.97  0.08  0.15  0.09
    2 H    1     0.51   0.47  0.04
    3 H    1     0.50   0.47  0.03
 
       Multipole analysis of the density wrt the origin
       ------------------------------------------------
 
     L   x y z        total         open         nuclear
     -   - - -        -----         ----         -------
     0   0 0 0     -0.000000      0.000000     10.000000
 
     1   1 0 0     -0.889777      0.000000     -4.838801
     1   0 1 0     -0.128927      0.000000     -2.109985
     1   0 0 1      0.000000      0.000000      0.000000
 
     2   2 0 0     -3.809074      0.000000      4.233311
     2   1 1 0      0.005827      0.000000      0.667385
     2   1 0 1     -0.000000      0.000000      0.000000
     2   0 2 0     -3.060997      0.000000      4.507975
     2   0 1 1      0.000000      0.000000      0.000000
     2   0 0 2     -5.691699      0.000000      0.000000
 

 Parallel integral file used       8 records with       0 large values

 *** CALLING NEW AORESP DRIVER FOR CLOSED AND OPEN SHELLS ***
 Entering AOResponse driver routine


--------------------------------------------------------------------------------

          ****************
          *** RESPONSE ***
          ****************

 Response module for NWChem and dynamic CPKS solver
 developed by J. Autschbach and coworkers, SUNY Buffalo
 The methodology used in this program is described in 
 ChemPhysChem 12 (2011), 3224-3235 (main reference)
 J. Chem. Phys. 123 (2005), 114103
 J. Chem. Phys. 122 (2005), 224115
 J. Chem. Phys. 122 (2005), 074105
 Comp. Lett. 3 (2007), 131-150 (contact JA for a copy)
 Please cite this work in publications based on results
 obtained with this code. Thank you!

 For extension of response module to open shell
 calculations please acknowledge:
 F. Aquino, Northwestern University, Schatz Rsrch Group
 The update to the methodology is described in
 J. Phys. Chem. A 118 (2014) 517-525



          -----------------------------------------------
          Solving response equations for perturbing field
          -----------------------------------------------

 number of frequencies:     1
 frequency in a.u.:  0.8855900E-01
 Perturbing field: electric
 Using El. Dipole Length Gauge
 
 Applying DAMPING constant of  0.007000 a.u.
 
 Setting up CPKS
 with frequency omega =      0.08855900 a.u.
 and a damping of            0.00700000 a.u.

 
                            NWChem Dynamic CPHF Module
                            --------------------------
 
 
    scftype = RHF 
    nclosed =    5
      nopen =    0
  variables =      360
  num. vecs =        3
  tolerance =   1.0D-04
  max. iter =   50


 #quartets = 3.081D+03 #integrals = 1.648D+04 #direct =  0.0% #cached =100.0%


 Integral file          = /scratch.global/lever046/nwchem/nwc_h2o_hf_nosmd_ram.aoints.0
 Record size in doubles =    65536    No. of integs per rec  =    43688
 Max. records in memory =        2    Max. records in file   = 53469168
 No. of bits per label  =        8    No. of bits per value  =       64


File balance: exchanges=     0  moved=     0  time=   0.0

 SCF residual:   1.944336963446490E-006


Iterative solution of linear equations
  No. of variables      180
  No. of equations        3
  Maximum subspace       30
       Convergence  1.0D-04
        Start time    124.2


   iter   nsub   residual    time 
   ----  ------  --------  --------- 
 dft_CPHF2_read: failed to open./nwc_h2o_hf_nosmd_ram.aoresp_fiao_f1
     1      3    8.95D-01     124.2
     2      6    4.14D-01     124.2
     3      9    1.62D-01     124.2
     4     12    2.14D-02     124.3
     5     15    3.66D-03     124.3
     6     18    7.17D-04     124.3
     7     21    1.88D-04     124.4
     8     24    2.18D-05     124.4

 Parallel integral file used       8 records with       0 large values


 Electric Dipole Response Matrix (nonzero elements):

              1        2        3      
    1    5.7149  -0.2639  -0.0000
    2   -0.2639   7.0904  -0.0000
    3   -0.0000  -0.0000   5.2487
 
 Imaginary part:

              1        2        3      
    1    0.0206  -0.0001  -0.0000
    2   -0.0001   0.0186  -0.0000
    3    0.0000   0.0000   0.0278

 ------------------------------------------
 average:         6.01798 + I       0.02234


 DFT Linear Response polarizability / au 
 Frequency  =       0.0885590 / au
 Wavelength =     514.4971488 / nm
              X              Y              Z
 -----------------------------------------------
 X       5.7148585     -0.2639200     -0.0000000
 Y      -0.2639200      7.0904325     -0.0000000
 Z      -0.0000000     -0.0000000      5.2486599
 -----------------------------------------------
 Eigenvalues =       5.6659605      7.1393304      5.2486599
 Isotropic   =       6.0179836
 Anisotropic =       1.4047057
 -----------------------------------------------
 *************************

 DFT Linear Response IMAG polarizability / au 
 Frequency  =       0.0885590 / au
 Wavelength =     514.4971488 / nm
              X              Y              Z
 -----------------------------------------------
 X       0.0206307     -0.0000666     -0.0000000
 Y      -0.0000666      0.0185785     -0.0000000
 Z       0.0000000      0.0000000      0.0278180
 -----------------------------------------------
 Eigenvalues =       0.0206329      0.0185764      0.0278180
 Isotropic   =       0.0223424
 Anisotropic =       0.0068621
 -----------------------------------------------
 *************************

 Magnetic Dipole Response Matrix (nonzero elements):
 Optical rotation tensor Beta

              1        2        3      
    1    0.0000  -0.0000   0.5074
    2    0.0000  -0.0000  -0.9387
    3   -0.5227   1.2310  -0.0000
 
 Imaginary part:

              1        2        3      
    1   -0.0000   0.0000   0.0418
    2   -0.0000   0.0000  -0.0761
    3   -0.0451   0.1091  -0.0000

 ------------------------------------------
 average:        -0.00000 + I      -0.00000

 Exiting AOResponse driver routine
 Stepsize :  1.041084486623162E-002

 4189.73  REAL                      42.103246
 4189.73  IMAGINARY                  0.001981
 4189.73  TOTAL                     42.105226

 Writing mini:
 ./nwc_h2o_hf_nosmd_ram.raman_0007-0009_nblock                                  
                                                                                
                                                                                
                   
Writing modecounter=    3
 Showing rminfo:
(start,last,rmmodes,nfreq,plot,width)=(   1,   9,   3,   1,normal          ,    20.00000000)
rminfo(   1)=(  1796.07268083,     2.97749484,     0.00000871,     2.97750355)
rminfo(   2)=(  4071.35548853,    80.91905869,     0.00335411,    80.92241280)
rminfo(   3)=(  4189.72623347,    42.10324560,     0.00198078,    42.10522638)

 Raman scattering data written to ./nwc_h2o_hf_nosmd_ram.normal


 Task  times  cpu:        5.5s     wall:      112.0s
 
 
                                NWChem Input Module
                                -------------------
 
 
 Summary of allocated global arrays
-----------------------------------
  No active global arrays



                         GA Statistics for process    0
                         ------------------------------

       create   destroy   get      put      acc     scatter   gather  read&inc
calls: 1.39e+04 1.39e+04 2.28e+05 2.37e+05 7.59e+04 4188        0     2323     
number of processes/call 1.23e+00 1.08e+00 1.39e+00 0.00e+00 0.00e+00
bytes total:             6.56e+07 2.40e+07 3.50e+07 4.80e+01 0.00e+00 1.86e+04
bytes remote:            2.17e+07 4.00e+06 2.26e+07 0.00e+00 0.00e+00 0.00e+00
Max memory consumed for GA by this process: 110816 bytes
 
MA_summarize_allocated_blocks: starting scan ...
MA_summarize_allocated_blocks: scan completed: 0 heap blocks, 0 stack blocks
MA usage statistics:

	allocation statistics:
					      heap	     stack
					      ----	     -----
	current number of blocks	         0	         0
	maximum number of blocks	        26	        39
	current total bytes		         0	         0
	maximum total bytes		   1063080	  22509640
	maximum total K-bytes		      1064	     22510
	maximum total M-bytes		         2	        23
 
 
                                     CITATION
                                     --------
                Please cite the following reference when publishing
                           results obtained with NWChem:
 
                 M. Valiev, E.J. Bylaska, N. Govind, K. Kowalski,
              T.P. Straatsma, H.J.J. van Dam, D. Wang, J. Nieplocha,
                        E. Apra, T.L. Windus, W.A. de Jong
                 "NWChem: a comprehensive and scalable open-source
                  solution for large scale molecular simulations"
                      Comput. Phys. Commun. 181, 1477 (2010)
                           doi:10.1016/j.cpc.2010.04.018
 
                                      AUTHORS
                                      -------
          E. Apra, E. J. Bylaska, W. A. de Jong, N. Govind, K. Kowalski,
       T. P. Straatsma, M. Valiev, H. J. J. van Dam, D. Wang, T. L. Windus,
        J. Hammond, J. Autschbach, K. Bhaskaran-Nair, J. Brabec, K. Lopata,
    S. A. Fischer, S. Krishnamoorthy, M. Jacquelin, W. Ma, M. Klemm, O. Villa,
      Y. Chen, V. Anisimov, F. Aquino, S. Hirata, M. T. Hackler, V. Konjkov,
            D. Mejia-Rodriguez, T. Risthaus, M. Malagoli, A. Marenich,
   A. Otero-de-la-Roza, J. Mullin, P. Nichols, R. Peverati, J. Pittner, Y. Zhao,
        P.-D. Fan, A. Fonari, M. J. Williamson, R. J. Harrison, J. R. Rehr,
      M. Dupuis, D. Silverstein, D. M. A. Smith, J. Nieplocha, V. Tipparaju,
    M. Krishnan, B. E. Van Kuiken, A. Vazquez-Mayagoitia, L. Jensen, M. Swart,
      Q. Wu, T. Van Voorhis, A. A. Auer, M. Nooijen, L. D. Crosby, E. Brown,
      G. Cisneros, G. I. Fann, H. Fruchtl, J. Garza, K. Hirao, R. A. Kendall,
      J. A. Nichols, K. Tsemekhman, K. Wolinski, J. Anchell, D. E. Bernholdt,
      P. Borowski, T. Clark, D. Clerc, H. Dachsel, M. J. O. Deegan, K. Dyall,
    D. Elwood, E. Glendening, M. Gutowski, A. C. Hess, J. Jaffe, B. G. Johnson,
     J. Ju, R. Kobayashi, R. Kutteh, Z. Lin, R. Littlefield, X. Long, B. Meng,
      T. Nakajima, S. Niu, L. Pollack, M. Rosing, K. Glaesemann, G. Sandrone,
      M. Stave, H. Taylor, G. Thomas, J. H. van Lenthe, A. T. Wong, Z. Zhang.

 Total times  cpu:        8.7s     wall:      124.8s
