 argument  1 = nwc_bzorig_b3lyp_nosmd_uvv.inp
                                         
                                         
 
 
              Northwest Computational Chemistry Package (NWChem) 6.8
              ------------------------------------------------------
 
 
                    Environmental Molecular Sciences Laboratory
                       Pacific Northwest National Laboratory
                                Richland, WA 99352
 
                              Copyright (c) 1994-2017
                       Pacific Northwest National Laboratory
                            Battelle Memorial Institute
 
             NWChem is an open-source computational chemistry package
                        distributed under the terms of the
                      Educational Community License (ECL) 2.0
             A copy of the license is included with this distribution
                              in the LICENSE.TXT file
 
                                  ACKNOWLEDGMENT
                                  --------------

            This software and its documentation were developed at the
            EMSL at Pacific Northwest National Laboratory, a multiprogram
            national laboratory, operated for the U.S. Department of Energy
            by Battelle under Contract Number DE-AC05-76RL01830. Support
            for this work was provided by the Department of Energy Office
            of Biological and Environmental Research, Office of Basic
            Energy Sciences, and the Office of Advanced Scientific Computing.


           Job information
           ---------------

    hostname        = cn0113
    program         = nwchem
    date            = Fri May 17 14:50:11 2024

    compiled        = Tue_Aug_14_10:52:15_2018
    source          = /panfs/roc/msisoft/nwchem/6.8_impi_2018
    nwchem branch   = 6.8
    nwchem revision = v6.8-47-gdf6c956
    ga revision     = ga-5.6.3
    use scalapack   = T
    input           = nwc_bzorig_b3lyp_nosmd_uvv.inp
    prefix          = nwc_bzorig_b3lyp_nosmd_uvv.
    data base       = ./nwc_bzorig_b3lyp_nosmd_uvv.db
    status          = startup
    nproc           =       16
    time left       =     -1s



           Memory information
           ------------------

    heap     =   13107200 doubles =    100.0 Mbytes
    stack    =   13107197 doubles =    100.0 Mbytes
    global   =   26214400 doubles =    200.0 Mbytes (distinct from heap & stack)
    total    =   52428797 doubles =    400.0 Mbytes
    verify   = yes
    hardfail = no 


           Directory information
           ---------------------
 
  0 permanent = .
  0 scratch   = /scratch.global/lever046/nwchem
 
 
 
 
                                NWChem Input Module
                                -------------------
 
 
                              Bz orig molecule UV/Vis
                              -----------------------

 Scaling coordinates for geometry "geometry" by  1.889725989
 (inverse scale =  0.529177249)

 C1  symmetry detected

          ------
          auto-z
          ------
 
 
                             Geometry "geometry" -> ""
                             -------------------------
 
 Output coordinates in angstroms (scale by  1.889725989 to convert to a.u.)
 
  No.       Tag          Charge          X              Y              Z
 ---- ---------------- ---------- -------------- -------------- --------------
    1 O                    8.0000     2.65359565    -3.53184779    -0.45825639
    2 O                    8.0000     2.11089439    -1.40480983     0.00599281
    3 N                    7.0000    -0.71760853    -0.84421390    -0.33889341
    4 C                    6.0000    -0.77404853    -2.22542312    -0.11064888
    5 C                    6.0000     0.36033760    -3.07961394    -0.06594995
    6 C                    6.0000    -0.22786432     1.41850909     0.33243835
    7 C                    6.0000    -2.05608336    -2.80414172    -0.04455159
    8 C                    6.0000     0.16448776    -4.47118589     0.05304587
    9 C                    6.0000    -0.30101982    -0.03187180     0.55320670
   10 C                    6.0000    -2.22333907    -4.17594735     0.10600842
   11 C                    6.0000    -1.10746603    -5.02069994     0.15389330
   12 C                    6.0000     0.23136580     2.24744127     1.36695086
   13 C                    6.0000    -0.60295647     2.00011244    -0.89133986
   14 C                    6.0000     0.31650582     3.62959013     1.19611642
   15 C                    6.0000    -0.52389845     3.37647344    -1.07581306
   16 C                    6.0000    -0.06399368     4.18127608    -0.02715807
   17 C                    6.0000     1.74781963    -2.55567919    -0.16016467
   18 H                    1.0000    -2.91576044    -2.14434390    -0.11676497
   19 H                    1.0000     1.03573368    -5.11589041     0.07321016
   20 H                    1.0000     0.01968102    -0.38041831     1.54346668
   21 H                    1.0000    -3.22653862    -4.58953542     0.17338132
   22 H                    1.0000    -1.23065940    -6.09473773     0.25880390
   23 H                    1.0000     0.53149061     1.80784734     2.31548269
   24 H                    1.0000    -0.95434686     1.35714600    -1.69233599
   25 H                    1.0000     0.67365141     4.26887350     1.99685426
   26 H                    1.0000    -0.81233781     3.82793210    -2.01968259
   27 CL                  17.0000     0.03662546     5.91921752    -0.25800466
   28 H                    1.0000     3.52471170    -3.09384969    -0.47217662
 
      Atomic Mass 
      ----------- 
 
      O                 15.994910
      N                 14.003070
      C                 12.000000
      H                  1.007825
      CL                34.968850
 

 Effective nuclear repulsion energy (a.u.)    1250.9250131307

            Nuclear Dipole moment (a.u.) 
            ----------------------------
        X                 Y               Z
 ---------------- ---------------- ----------------
     0.0000000000    -0.0000000000    -0.0000000000
 


                                Z-matrix (autoz)
                                -------- 

 Units are Angstrom for bonds and degrees for angles
 
      Type          Name      I     J     K     L     M      Value
      ----------- --------  ----- ----- ----- ----- ----- ----------
    1 Stretch                  1    17                       1.36462
    2 Stretch                  1    28                       0.97513
    3 Stretch                  2    17                       1.21817
    4 Stretch                  3     4                       1.40108
    5 Stretch                  3     9                       1.27644
    6 Stretch                  4     5                       1.42073
    7 Stretch                  4     7                       1.40815
    8 Stretch                  5     8                       1.41032
    9 Stretch                  5    17                       1.48610
   10 Stretch                  6     9                       1.46891
   11 Stretch                  6    12                       1.40294
   12 Stretch                  6    13                       1.40591
   13 Stretch                  7    10                       1.39014
   14 Stretch                  7    18                       1.08609
   15 Stretch                  8    11                       1.38925
   16 Stretch                  8    19                       1.08403
   17 Stretch                  9    20                       1.09770
   18 Stretch                 10    11                       1.40038
   19 Stretch                 10    21                       1.08720
   20 Stretch                 11    22                       1.08616
   21 Stretch                 12    14                       1.39527
   22 Stretch                 12    23                       1.08767
   23 Stretch                 13    15                       1.39092
   24 Stretch                 13    24                       1.08558
   25 Stretch                 14    16                       1.39483
   26 Stretch                 14    25                       1.08509
   27 Stretch                 15    16                       1.39961
   28 Stretch                 15    26                       1.08531
   29 Stretch                 16    27                       1.75609
   30 Bend                     1    17     2               120.51631
   31 Bend                     1    17     5               112.41794
   32 Bend                     2    17     5               127.06381
   33 Bend                     3     4     5               124.44875
   34 Bend                     3     4     7               116.70973
   35 Bend                     3     9     6               122.65644
   36 Bend                     3     9    20               121.58521
   37 Bend                     4     3     9               121.78150
   38 Bend                     4     5     8               119.01360
   39 Bend                     4     5    17               122.10716
   40 Bend                     4     7    10               121.34429
   41 Bend                     4     7    18               117.89499
   42 Bend                     5     4     7               118.57907
   43 Bend                     5     8    11               121.57146
   44 Bend                     5     8    19               118.47558
   45 Bend                     6     9    20               115.75679
   46 Bend                     6    12    14               120.99668
   47 Bend                     6    12    23               119.64218
   48 Bend                     6    13    15               120.63957
   49 Bend                     6    13    24               118.92128
   50 Bend                     7    10    11               120.20564
   51 Bend                     7    10    21               119.54648
   52 Bend                     8     5    17               118.87333
   53 Bend                     8    11    10               119.24007
   54 Bend                     8    11    22               120.13184
   55 Bend                     9     6    12               119.26687
   56 Bend                     9     6    13               121.73574
   57 Bend                    10     7    18               120.76063
   58 Bend                    10    11    22               120.62541
   59 Bend                    11     8    19               119.95105
   60 Bend                    11    10    21               120.24319
   61 Bend                    12     6    13               118.99717
   62 Bend                    12    14    16               118.85133
   63 Bend                    12    14    25               120.88692
   64 Bend                    13    15    16               119.22952
   65 Bend                    13    15    26               120.78746
   66 Bend                    14    12    23               119.36021
   67 Bend                    14    16    15               121.28557
   68 Bend                    14    16    27               119.41240
   69 Bend                    15    13    24               120.43907
   70 Bend                    15    16    27               119.30201
   71 Bend                    16    14    25               120.26165
   72 Bend                    16    15    26               119.98295
   73 Bend                    17     1    28               105.94801
   74 Torsion                  1    17     5     4        -163.42359
   75 Torsion                  1    17     5     8          15.68274
   76 Torsion                  2    17     1    28           1.05780
   77 Torsion                  2    17     5     4          17.08616
   78 Torsion                  2    17     5     8        -163.80751
   79 Torsion                  3     4     5     8        -174.39521
   80 Torsion                  3     4     5    17           4.70991
   81 Torsion                  3     4     7    10         176.49876
   82 Torsion                  3     4     7    18          -3.39435
   83 Torsion                  3     9     6    12         179.48478
   84 Torsion                  3     9     6    13          -0.68770
   85 Torsion                  4     3     9     6         179.70510
   86 Torsion                  4     3     9    20          -0.76892
   87 Torsion                  4     5     8    11          -1.29602
   88 Torsion                  4     5     8    19         179.20723
   89 Torsion                  4     7    10    11          -1.98790
   90 Torsion                  4     7    10    21         178.79854
   91 Torsion                  5     4     3     9         -73.60393
   92 Torsion                  5     4     7    10           2.11926
   93 Torsion                  5     4     7    18        -177.77385
   94 Torsion                  5     8    11    10           1.46248
   95 Torsion                  5     8    11    22        -179.12964
   96 Torsion                  5    17     1    28        -178.47004
   97 Torsion                  6    12    14    16          -0.00829
   98 Torsion                  6    12    14    25        -179.88837
   99 Torsion                  6    13    15    16           0.05999
  100 Torsion                  6    13    15    26         179.96794
  101 Torsion                  7     4     3     9         112.38268
  102 Torsion                  7     4     5     8          -0.48540
  103 Torsion                  7     4     5    17         178.61972
  104 Torsion                  7    10    11     8           0.17761
  105 Torsion                  7    10    11    22        -179.22727
  106 Torsion                  8    11    10    21         179.38566
  107 Torsion                  9     6    12    14         179.94602
  108 Torsion                  9     6    12    23           0.29736
  109 Torsion                  9     6    13    15        -179.96769
  110 Torsion                  9     6    13    24          -0.07102
  111 Torsion                 10    11     8    19        -179.04806
  112 Torsion                 11     8     5    17         179.56960
  113 Torsion                 11    10     7    18         177.90217
  114 Torsion                 12     6     9    20          -0.06687
  115 Torsion                 12     6    13    15          -0.13973
  116 Torsion                 12     6    13    24         179.75694
  117 Torsion                 12    14    16    15          -0.07438
  118 Torsion                 12    14    16    27         179.97603
  119 Torsion                 13     6     9    20         179.76064
  120 Torsion                 13     6    12    14           0.11374
  121 Torsion                 13     6    12    23        -179.53491
  122 Torsion                 13    15    16    14           0.04878
  123 Torsion                 13    15    16    27         179.99843
  124 Torsion                 14    16    15    26        -179.85993
  125 Torsion                 15    16    14    25         179.80647
  126 Torsion                 16    14    12    23         179.64134
  127 Torsion                 16    15    13    24        -179.83511
  128 Torsion                 17     5     8    19           0.07284
  129 Torsion                 18     7    10    21          -1.31140
  130 Torsion                 19     8    11    22           0.35982
  131 Torsion                 21    10    11    22          -0.01923
  132 Torsion                 23    12    14    25          -0.23874
  133 Torsion                 24    13    15    26           0.07285
  134 Torsion                 25    14    16    27          -0.14313
  135 Torsion                 26    15    16    27           0.08972
 
 
            XYZ format geometry
            -------------------
    28
 geometry
 O                     2.65359565    -3.53184779    -0.45825639
 O                     2.11089439    -1.40480983     0.00599281
 N                    -0.71760853    -0.84421390    -0.33889341
 C                    -0.77404853    -2.22542312    -0.11064888
 C                     0.36033760    -3.07961394    -0.06594995
 C                    -0.22786432     1.41850909     0.33243835
 C                    -2.05608336    -2.80414172    -0.04455159
 C                     0.16448776    -4.47118589     0.05304587
 C                    -0.30101982    -0.03187180     0.55320670
 C                    -2.22333907    -4.17594735     0.10600842
 C                    -1.10746603    -5.02069994     0.15389330
 C                     0.23136580     2.24744127     1.36695086
 C                    -0.60295647     2.00011244    -0.89133986
 C                     0.31650582     3.62959013     1.19611642
 C                    -0.52389845     3.37647344    -1.07581306
 C                    -0.06399368     4.18127608    -0.02715807
 C                     1.74781963    -2.55567919    -0.16016467
 H                    -2.91576044    -2.14434390    -0.11676497
 H                     1.03573368    -5.11589041     0.07321016
 H                     0.01968102    -0.38041831     1.54346668
 H                    -3.22653862    -4.58953542     0.17338132
 H                    -1.23065940    -6.09473773     0.25880390
 H                     0.53149061     1.80784734     2.31548269
 H                    -0.95434686     1.35714600    -1.69233599
 H                     0.67365141     4.26887350     1.99685426
 H                    -0.81233781     3.82793210    -2.01968259
 CL                    0.03662546     5.91921752    -0.25800466
 H                     3.52471170    -3.09384969    -0.47217662
 
 ==============================================================================
                                internuclear distances
 ------------------------------------------------------------------------------
       center one      |      center two      | atomic units |  angstroms
 ------------------------------------------------------------------------------
    4 C                |   3 N                |     2.64765  |     1.40108
    5 C                |   4 C                |     2.68479  |     1.42073
    7 C                |   4 C                |     2.66103  |     1.40815
    8 C                |   5 C                |     2.66511  |     1.41032
    9 C                |   3 N                |     2.41211  |     1.27644
    9 C                |   6 C                |     2.77584  |     1.46891
   10 C                |   7 C                |     2.62699  |     1.39014
   11 C                |   8 C                |     2.62529  |     1.38925
   11 C                |  10 C                |     2.64634  |     1.40038
   12 C                |   6 C                |     2.65117  |     1.40294
   13 C                |   6 C                |     2.65679  |     1.40591
   14 C                |  12 C                |     2.63667  |     1.39527
   15 C                |  13 C                |     2.62845  |     1.39092
   16 C                |  14 C                |     2.63584  |     1.39483
   16 C                |  15 C                |     2.64487  |     1.39961
   17 C                |   1 O                |     2.57876  |     1.36462
   17 C                |   2 O                |     2.30200  |     1.21817
   17 C                |   5 C                |     2.80832  |     1.48610
   18 H                |   7 C                |     2.05241  |     1.08609
   19 H                |   8 C                |     2.04852  |     1.08403
   20 H                |   9 C                |     2.07436  |     1.09770
   21 H                |  10 C                |     2.05451  |     1.08720
   22 H                |  11 C                |     2.05254  |     1.08616
   23 H                |  12 C                |     2.05540  |     1.08767
   24 H                |  13 C                |     2.05144  |     1.08558
   25 H                |  14 C                |     2.05052  |     1.08509
   26 H                |  15 C                |     2.05094  |     1.08531
   27 CL               |  16 C                |     3.31853  |     1.75609
   28 H                |   1 O                |     1.84273  |     0.97513
 ------------------------------------------------------------------------------
                         number of included internuclear distances:         29
 ==============================================================================



 ==============================================================================
                                 internuclear angles
 ------------------------------------------------------------------------------
        center 1       |       center 2       |       center 3       |  degrees
 ------------------------------------------------------------------------------
   17 C                |   1 O                |  28 H                |   105.95
    4 C                |   3 N                |   9 C                |   121.78
    3 N                |   4 C                |   5 C                |   124.45
    3 N                |   4 C                |   7 C                |   116.71
    5 C                |   4 C                |   7 C                |   118.58
    4 C                |   5 C                |   8 C                |   119.01
    4 C                |   5 C                |  17 C                |   122.11
    8 C                |   5 C                |  17 C                |   118.87
    9 C                |   6 C                |  12 C                |   119.27
    9 C                |   6 C                |  13 C                |   121.74
   12 C                |   6 C                |  13 C                |   119.00
    4 C                |   7 C                |  10 C                |   121.34
    4 C                |   7 C                |  18 H                |   117.89
   10 C                |   7 C                |  18 H                |   120.76
    5 C                |   8 C                |  11 C                |   121.57
    5 C                |   8 C                |  19 H                |   118.48
   11 C                |   8 C                |  19 H                |   119.95
    3 N                |   9 C                |   6 C                |   122.66
    3 N                |   9 C                |  20 H                |   121.59
    6 C                |   9 C                |  20 H                |   115.76
    7 C                |  10 C                |  11 C                |   120.21
    7 C                |  10 C                |  21 H                |   119.55
   11 C                |  10 C                |  21 H                |   120.24
    8 C                |  11 C                |  10 C                |   119.24
    8 C                |  11 C                |  22 H                |   120.13
   10 C                |  11 C                |  22 H                |   120.63
    6 C                |  12 C                |  14 C                |   121.00
    6 C                |  12 C                |  23 H                |   119.64
   14 C                |  12 C                |  23 H                |   119.36
    6 C                |  13 C                |  15 C                |   120.64
    6 C                |  13 C                |  24 H                |   118.92
   15 C                |  13 C                |  24 H                |   120.44
   12 C                |  14 C                |  16 C                |   118.85
   12 C                |  14 C                |  25 H                |   120.89
   16 C                |  14 C                |  25 H                |   120.26
   13 C                |  15 C                |  16 C                |   119.23
   13 C                |  15 C                |  26 H                |   120.79
   16 C                |  15 C                |  26 H                |   119.98
   14 C                |  16 C                |  15 C                |   121.29
   14 C                |  16 C                |  27 CL               |   119.41
   15 C                |  16 C                |  27 CL               |   119.30
    1 O                |  17 C                |   2 O                |   120.52
    1 O                |  17 C                |   5 C                |   112.42
    2 O                |  17 C                |   5 C                |   127.06
 ------------------------------------------------------------------------------
                            number of included internuclear angles:         44
 ==============================================================================



  library name resolved from: environment
  library file name is: <
 /common/software/install/migrated/nwchem/6.5_ompi_1.7.2/src/basis/libraries/>
  


 Summary of "ao basis" -> "" (cartesian)
 ------------------------------------------------------------------------------
       Tag                 Description            Shells   Functions and Types
 ---------------- ------------------------------  ------  ---------------------
 *                          6-31+G*                   on all atoms 


 
                                 NWChem DFT Module
                                 -----------------
 
 
                              Bz orig molecule UV/Vis
 
 
                      Basis "ao basis" -> "ao basis" (cartesian)
                      -----
  O (Oxygen)
  ----------
            Exponent  Coefficients 
       -------------- ---------------------------------------------------------
  1 S  5.48467170E+03  0.001831
  1 S  8.25234950E+02  0.013950
  1 S  1.88046960E+02  0.068445
  1 S  5.29645000E+01  0.232714
  1 S  1.68975700E+01  0.470193
  1 S  5.79963530E+00  0.358521
 
  2 S  1.55396160E+01 -0.110778
  2 S  3.59993360E+00 -0.148026
  2 S  1.01376180E+00  1.130767
 
  3 P  1.55396160E+01  0.070874
  3 P  3.59993360E+00  0.339753
  3 P  1.01376180E+00  0.727159
 
  4 S  2.70005800E-01  1.000000
 
  5 P  2.70005800E-01  1.000000
 
  6 S  8.45000000E-02  1.000000
 
  7 P  8.45000000E-02  1.000000
 
  8 D  8.00000000E-01  1.000000
 
  N (Nitrogen)
  ------------
            Exponent  Coefficients 
       -------------- ---------------------------------------------------------
  1 S  4.17351100E+03  0.001835
  1 S  6.27457900E+02  0.013995
  1 S  1.42902100E+02  0.068587
  1 S  4.02343300E+01  0.232241
  1 S  1.28202100E+01  0.469070
  1 S  4.39043700E+00  0.360455
 
  2 S  1.16263580E+01 -0.114961
  2 S  2.71628000E+00 -0.169118
  2 S  7.72218000E-01  1.145852
 
  3 P  1.16263580E+01  0.067580
  3 P  2.71628000E+00  0.323907
  3 P  7.72218000E-01  0.740895
 
  4 S  2.12031300E-01  1.000000
 
  5 P  2.12031300E-01  1.000000
 
  6 S  6.39000000E-02  1.000000
 
  7 P  6.39000000E-02  1.000000
 
  8 D  8.00000000E-01  1.000000
 
  C (Carbon)
  ----------
            Exponent  Coefficients 
       -------------- ---------------------------------------------------------
  1 S  3.04752490E+03  0.001835
  1 S  4.57369510E+02  0.014037
  1 S  1.03948690E+02  0.068843
  1 S  2.92101550E+01  0.232184
  1 S  9.28666300E+00  0.467941
  1 S  3.16392700E+00  0.362312
 
  2 S  7.86827240E+00 -0.119332
  2 S  1.88128850E+00 -0.160854
  2 S  5.44249300E-01  1.143456
 
  3 P  7.86827240E+00  0.068999
  3 P  1.88128850E+00  0.316424
  3 P  5.44249300E-01  0.744308
 
  4 S  1.68714400E-01  1.000000
 
  5 P  1.68714400E-01  1.000000
 
  6 S  4.38000000E-02  1.000000
 
  7 P  4.38000000E-02  1.000000
 
  8 D  8.00000000E-01  1.000000
 
  H (Hydrogen)
  ------------
            Exponent  Coefficients 
       -------------- ---------------------------------------------------------
  1 S  1.87311370E+01  0.033495
  1 S  2.82539370E+00  0.234727
  1 S  6.40121700E-01  0.813757
 
  2 S  1.61277800E-01  1.000000
 
  CL (Chlorine)
  -------------
            Exponent  Coefficients 
       -------------- ---------------------------------------------------------
  1 S  2.51801000E+04  0.001833
  1 S  3.78035000E+03  0.014034
  1 S  8.60474000E+02  0.069097
  1 S  2.42145000E+02  0.237452
  1 S  7.73349000E+01  0.483034
  1 S  2.62470000E+01  0.339856
 
  2 S  4.91765000E+02 -0.002297
  2 S  1.16984000E+02 -0.030714
  2 S  3.74153000E+01 -0.112528
  2 S  1.37834000E+01  0.045016
  2 S  5.45215000E+00  0.589353
  2 S  2.22588000E+00  0.465206
 
  3 P  4.91765000E+02  0.003989
  3 P  1.16984000E+02  0.030318
  3 P  3.74153000E+01  0.129880
  3 P  1.37834000E+01  0.327951
  3 P  5.45215000E+00  0.453527
  3 P  2.22588000E+00  0.252154
 
  4 S  3.18649000E+00 -0.251830
  4 S  1.14427000E+00  0.061589
  4 S  4.20377000E-01  1.060180
 
  5 P  3.18649000E+00 -0.014299
  5 P  1.14427000E+00  0.323572
  5 P  4.20377000E-01  0.743507
 
  6 S  1.42657000E-01  1.000000
 
  7 P  1.42657000E-01  1.000000
 
  8 S  4.83000000E-02  1.000000
 
  9 P  4.83000000E-02  1.000000
 
 10 D  7.50000000E-01  1.000000
 


 Summary of "ao basis" -> "ao basis" (cartesian)
 ------------------------------------------------------------------------------
       Tag                 Description            Shells   Functions and Types
 ---------------- ------------------------------  ------  ---------------------
 O                          6-31+G*                  8       19   4s3p1d
 N                          6-31+G*                  8       19   4s3p1d
 C                          6-31+G*                  8       19   4s3p1d
 H                          6-31+G*                  2        2   2s
 CL                         6-31+G*                 10       23   5s4p1d




 Summary of "ao basis" -> "ao basis" (cartesian)
 ------------------------------------------------------------------------------
       Tag                 Description            Shells   Functions and Types
 ---------------- ------------------------------  ------  ---------------------
 O                          6-31+G*                  8       19   4s3p1d
 N                          6-31+G*                  8       19   4s3p1d
 C                          6-31+G*                  8       19   4s3p1d
 H                          6-31+G*                  2        2   2s
 CL                         6-31+G*                 10       23   5s4p1d


  Caching 1-el integrals 
 
            General Information
            -------------------
          SCF calculation type: DFT
          Wavefunction type:  closed shell.
          No. of atoms     :    28
          No. of electrons :   134
           Alpha electrons :    67
            Beta electrons :    67
          Charge           :     0
          Spin multiplicity:     1
          Use of symmetry is: off; symmetry adaption is: off
          Maximum number of iterations: 200
          AO basis - number of functions:   366
                     number of shells:   166
          Convergence on energy requested:  1.00D-06
          Convergence on density requested:  1.00D-05
          Convergence on gradient requested:  5.00D-04
 
              XC Information
              --------------
                         B3LYP Method XC Potential
                     Hartree-Fock (Exact) Exchange  0.200          
                        Slater Exchange Functional  0.800 local    
                    Becke 1988 Exchange Functional  0.720 non-local
              Lee-Yang-Parr Correlation Functional  0.810          
                  VWN I RPA Correlation Functional  0.190 local    
 
             Grid Information
             ----------------
          Grid used for XC integration:  medium    
          Radial quadrature: Mura-Knowles        
          Angular quadrature: Lebedev. 
          Tag              B.-S. Rad. Rad. Pts. Rad. Cut. Ang. Pts.
          ---              ---------- --------- --------- ---------
          O                   0.60       49          23.0       434
          N                   0.65       49          17.0       434
          C                   0.70       49          24.0       434
          H                   0.35       45          23.0       434
          CL                  1.00       88          24.0       590
          Grid pruning is: on 
          Number of quadrature shells:  1371
          Spatial weights used:  Erf1
 
          Convergence Information
          -----------------------
          Convergence aids based upon iterative change in 
          total energy or number of iterations. 
          Levelshifting, if invoked, occurs when the 
          HOMO/LUMO gap drops below (HL_TOL):  1.00D-02
          DIIS, if invoked, will attempt to extrapolate 
          using up to (NFOCK): 10 stored Fock matrices.

                    Damping( 0%)  Levelshifting(0.5)       DIIS
                  --------------- ------------------- ---------------
          dE  on:    start            ASAP                start   
          dE off:    2 iters        200 iters           200 iters 

 
      Screening Tolerance Information
      -------------------------------
          Density screening/tol_rho:  1.00D-10
          AO Gaussian exp screening on grid/accAOfunc:  14
          CD Gaussian exp screening on grid/accCDfunc:  20
          XC Gaussian exp screening on grid/accXCfunc:  20
          Schwarz screening/accCoul:  1.00D-08

 
 WARNING : Found     7 linear dependencies 
 S eigenvalue threshold:     1.00000E-05
 Smallest S eigenvalue :     9.73114E-07
 Largest  S eigenvalue :     7.77195E-06
 

 !! The overlap matrix has   7 vectors deemed linearly dependent with
    eigenvalues:
 9.73D-07 1.28D-06 1.61D-06 2.63D-06 3.09D-06 5.41D-06 7.77D-06
 
 
      Superposition of Atomic Density Guess
      -------------------------------------
 
 Sum of atomic energies:       -1195.53157776
 
      Non-variational initial energy
      ------------------------------

 Total energy =   -1207.047999
 1-e energy   =   -4117.164711
 2-e energy   =    1659.191699
 HOMO         =      -0.260806
 LUMO         =      -0.068307
 
   Time after variat. SCF:      8.4
   Time prior to 1st pass:      8.4

 Integral file          = /scratch.global/lever046/nwchem/nwc_bzorig_b3lyp_nosmd_uvv.aoints.00
 Record size in doubles =    65536    No. of integs per rec  =    32766
 Max. records in memory =        0    Max. records in file   = 16870296
 No. of bits per label  =       16    No. of bits per value  =       64


 #quartets = 5.353D+07 #integrals = 1.008D+09 #direct =  0.0% #cached =100.0%


File balance: exchanges=    15  moved=   768  time=   1.1


 Grid_pts file          = /scratch.global/lever046/nwchem/nwc_bzorig_b3lyp_nosmd_uvv.gridpts.00
 Record size in doubles =  12289        No. of grid_pts per rec  =   3070
 Max. records in memory =     20        Max. recs in file   =  89960505

 Grid integrated density:     134.380452000206
 Requested integration accuracy:   0.10E-05

           Memory utilization after 1st SCF pass: 
           Heap Space remaining (MW):       12.85            12846920
          Stack Space remaining (MW):       13.10            13104260

   convergence    iter        energy       DeltaE   RMS-Dens  Diis-err    time
 ---------------- ----- ----------------- --------- --------- ---------  ------
 d= 0,ls=0.0,diis     1  -1202.5610894989 -2.45D+03  2.86D+02  2.33D+01    22.9
 Grid integrated density:     134.000521776505
 Requested integration accuracy:   0.10E-05
 d= 0,ls=0.0,diis     2  -1194.7699015194  7.79D+00  4.30D+01  6.25D+01    26.4
 Grid integrated density:     134.000454516835
 Requested integration accuracy:   0.10E-05
 d= 0,ls=0.5,diis     3  -1195.9191112055 -1.15D+00  1.74D+01  2.80D+01    29.8
 Grid integrated density:     134.000474371343
 Requested integration accuracy:   0.10E-05
 d= 0,ls=0.5,diis     4  -1200.8302899866 -4.91D+00  9.86D+00  1.81D+01    33.4
 Grid integrated density:     134.000480623284
 Requested integration accuracy:   0.10E-05
 d= 0,ls=0.5,diis     5  -1201.3390392919 -5.09D-01  1.58D+01  1.54D+01    36.8
 Grid integrated density:     134.000481044097
 Requested integration accuracy:   0.10E-05
 d= 0,ls=0.5,diis     6  -1201.6293580221 -2.90D-01  1.41D+01  1.52D+01    40.3
 Grid integrated density:     134.000465691208
 Requested integration accuracy:   0.10E-05
  Resetting Diis
 d= 0,ls=0.5,diis     7  -1201.6120914079  1.73D-02  1.22D+01  1.48D+01    43.8
 Grid integrated density:     134.000462797502
 Requested integration accuracy:   0.10E-05
 d= 0,ls=0.5,diis     8  -1201.5063592570  1.06D-01  1.51D+02  1.48D+01    47.5
 Grid integrated density:     134.000232873683
 Requested integration accuracy:   0.10E-05
 d= 0,ls=0.5,diis     9  -1200.3521835513  1.15D+00  9.28D+01  2.08D+01    51.0
 d= 0,ls=0.5,diis    10  -1204.1392472624 -3.79D+00  4.05D+01  2.56D+00    54.7
 d= 0,ls=0.5,diis    11  -1204.7159016250 -5.77D-01  1.46D+01  3.47D-01    58.4
 d= 0,ls=0.5,diis    12  -1204.8540220572 -1.38D-01  4.12D+00  1.59D-01    62.1
 d= 0,ls=0.5,diis    13  -1204.9077807386 -5.38D-02  1.16D+00  4.16D-02    65.9
 d= 0,ls=0.5,diis    14  -1204.9276296391 -1.98D-02  3.21D-01  1.73D-02    69.5
 d= 0,ls=0.5,diis    15  -1204.9359989356 -8.37D-03  9.18D-02  7.53D-03    73.2
 d= 0,ls=0.5,diis    16  -1204.9397725970 -3.77D-03  2.84D-02  3.90D-03    76.8
 d= 0,ls=0.5,diis    17  -1204.9416680988 -1.90D-03  1.01D-02  1.54D-03    80.4
 d= 0,ls=0.5,diis    18  -1204.9425485704 -8.80D-04  4.14D-03  7.25D-04    84.0
 d= 0,ls=0.5,diis    19  -1204.9429664875 -4.18D-04  1.93D-03  3.68D-04    87.5
 d= 0,ls=0.5,diis    20  -1204.9431733591 -2.07D-04  1.01D-03  1.82D-04    91.1
 d= 0,ls=0.5,diis    21  -1204.9432753626 -1.02D-04  5.66D-04  8.81D-05    94.8
 d= 0,ls=0.5,diis    22  -1204.9433249791 -4.96D-05  3.37D-04  4.61D-05    98.3
 d= 0,ls=0.5,diis    23  -1204.9433499349 -2.50D-05  2.04D-04  2.40D-05   101.9
 d= 0,ls=0.5,diis    24  -1204.9433625795 -1.26D-05  1.27D-04  1.21D-05   105.5
 d= 0,ls=0.5,diis    25  -1204.9433690148 -6.44D-06  8.08D-05  6.07D-06   109.1
 d= 0,ls=0.5,diis    26  -1204.9433722522 -3.24D-06  5.14D-05  3.39D-06   112.7
 d= 0,ls=0.5,diis    27  -1204.9433739403 -1.69D-06  3.26D-05  1.87D-06   116.3
 d= 0,ls=0.5,diis    28  -1204.9433748267 -8.86D-07  2.14D-05  1.02D-06   205.3
 d= 0,ls=0.5,diis    29  -1204.9433752934 -4.67D-07  1.39D-05  5.50D-07   209.0
 d= 0,ls=0.5,diis    30  -1204.9433755379 -2.44D-07  9.33D-06  3.07D-07   212.7


         Total DFT energy =    -1204.943375668137
      One electron energy =    -4129.661980293486
           Coulomb energy =     1805.691638155938
    Exchange-Corr. energy =     -131.898046661317
 Nuclear repulsion energy =     1250.925013130728

 Numeric. integr. density =      134.000032154779

     Total iterative time =    207.9s


 
                       DFT Final Molecular Orbital Analysis
                       ------------------------------------
 
 Vector    1  Occ=2.000000D+00  E=-1.015623D+02
              MO Center=  3.7D-02,  5.9D+00, -2.6D-01, r^2= 3.1D-03
   Bfn.  Coefficient  Atom+Function         Bfn.  Coefficient  Atom+Function  
  ----- ------------  ---------------      ----- ------------  ---------------
   342      0.995997  27 Cl s         
 
 Vector    2  Occ=2.000000D+00  E=-1.920991D+01
              MO Center=  2.7D+00, -3.5D+00, -4.6D-01, r^2= 1.5D-02
   Bfn.  Coefficient  Atom+Function         Bfn.  Coefficient  Atom+Function  
  ----- ------------  ---------------      ----- ------------  ---------------
     1      0.992534   1 O  s                 2      0.025291   1 O  s         
 
 Vector    3  Occ=2.000000D+00  E=-1.915365D+01
              MO Center=  2.1D+00, -1.4D+00,  6.0D-03, r^2= 1.5D-02
   Bfn.  Coefficient  Atom+Function         Bfn.  Coefficient  Atom+Function  
  ----- ------------  ---------------      ----- ------------  ---------------
    20      0.992529   2 O  s                21      0.025096   2 O  s         
 
 Vector    4  Occ=2.000000D+00  E=-1.435127D+01
              MO Center= -7.2D-01, -8.4D-01, -3.4D-01, r^2= 2.0D-02
   Bfn.  Coefficient  Atom+Function         Bfn.  Coefficient  Atom+Function  
  ----- ------------  ---------------      ----- ------------  ---------------
    39      0.992677   3 N  s                40      0.034829   3 N  s         
 
 Vector    5  Occ=2.000000D+00  E=-1.033670D+01
              MO Center=  1.7D+00, -2.6D+00, -1.6D-01, r^2= 2.8D-02
   Bfn.  Coefficient  Atom+Function         Bfn.  Coefficient  Atom+Function  
  ----- ------------  ---------------      ----- ------------  ---------------
   305      0.993242  17 C  s               306      0.049614  17 C  s         
   314     -0.049861  17 C  s         
 
 Vector    6  Occ=2.000000D+00  E=-1.027072D+01
              MO Center= -6.4D-02,  4.2D+00, -2.7D-02, r^2= 2.8D-02
   Bfn.  Coefficient  Atom+Function         Bfn.  Coefficient  Atom+Function  
  ----- ------------  ---------------      ----- ------------  ---------------
   286      0.993019  16 C  s               287      0.049892  16 C  s         
   295      0.037961  16 C  s               297     -0.028562  16 C  py        
 
 Vector    7  Occ=2.000000D+00  E=-1.025644D+01
              MO Center= -3.0D-01, -3.2D-02,  5.5D-01, r^2= 2.8D-02
   Bfn.  Coefficient  Atom+Function         Bfn.  Coefficient  Atom+Function  
  ----- ------------  ---------------      ----- ------------  ---------------
   153      0.993080   9 C  s               154      0.050490   9 C  s         
   164      0.032774   9 C  py        
 
 Vector    8  Occ=2.000000D+00  E=-1.025187D+01
              MO Center= -7.7D-01, -2.2D+00, -1.1D-01, r^2= 2.8D-02
   Bfn.  Coefficient  Atom+Function         Bfn.  Coefficient  Atom+Function  
  ----- ------------  ---------------      ----- ------------  ---------------
    58      0.993160   4 C  s                59      0.050762   4 C  s         
    63     -0.027242   4 C  s         
 
 Vector    9  Occ=2.000000D+00  E=-1.022292D+01
              MO Center=  3.6D-01, -3.1D+00, -6.6D-02, r^2= 2.9D-02
   Bfn.  Coefficient  Atom+Function         Bfn.  Coefficient  Atom+Function  
  ----- ------------  ---------------      ----- ------------  ---------------
    77      0.992682   5 C  s                78      0.050611   5 C  s         
    86      0.027987   5 C  s               314     -0.027589  17 C  s         
 
 Vector   10  Occ=2.000000D+00  E=-1.022085D+01
              MO Center=  2.2D-01,  2.3D+00,  1.3D+00, r^2= 1.2D-01
   Bfn.  Coefficient  Atom+Function         Bfn.  Coefficient  Atom+Function  
  ----- ------------  ---------------      ----- ------------  ---------------
   210      0.968018  12 C  s               248      0.166214  14 C  s         
    96      0.145102   6 C  s               211      0.049096  12 C  s         
 
 Vector   11  Occ=2.000000D+00  E=-1.021920D+01
              MO Center=  2.7D-01,  3.4D+00,  1.1D+00, r^2= 5.0D-01
   Bfn.  Coefficient  Atom+Function         Bfn.  Coefficient  Atom+Function  
  ----- ------------  ---------------      ----- ------------  ---------------
   248      0.943163  14 C  s                96     -0.285932   6 C  s         
   210     -0.119250  12 C  s               249      0.048080  14 C  s         
   257      0.031197  14 C  s         
 
 Vector   12  Occ=2.000000D+00  E=-1.021903D+01
              MO Center= -1.8D-01,  1.6D+00,  4.2D-01, r^2= 4.8D-01
   Bfn.  Coefficient  Atom+Function         Bfn.  Coefficient  Atom+Function  
  ----- ------------  ---------------      ----- ------------  ---------------
    96      0.936771   6 C  s               248      0.262228  14 C  s         
   210     -0.186275  12 C  s               229      0.066659  13 C  s         
    97      0.047882   6 C  s               105      0.034970   6 C  s         
   164      0.031636   9 C  py              276     -0.027843  15 C  s         
   267      0.027423  15 C  s         
 
 Vector   13  Occ=2.000000D+00  E=-1.021835D+01
              MO Center= -5.2D-01,  3.4D+00, -1.1D+00, r^2= 5.1D-02
   Bfn.  Coefficient  Atom+Function         Bfn.  Coefficient  Atom+Function  
  ----- ------------  ---------------      ----- ------------  ---------------
   267      0.988315  15 C  s               229      0.089015  13 C  s         
   268      0.050273  15 C  s                96     -0.034114   6 C  s         
 
 Vector   14  Occ=2.000000D+00  E=-1.021521D+01
              MO Center= -6.0D-01,  2.0D+00, -8.9D-01, r^2= 5.3D-02
   Bfn.  Coefficient  Atom+Function         Bfn.  Coefficient  Atom+Function  
  ----- ------------  ---------------      ----- ------------  ---------------
   229      0.986504  13 C  s               267     -0.091590  15 C  s         
    96     -0.067400   6 C  s               230      0.050316  13 C  s         
   234     -0.025745  13 C  s         
 
 Vector   15  Occ=2.000000D+00  E=-1.021434D+01
              MO Center= -2.2D+00, -4.2D+00,  1.1D-01, r^2= 3.2D-02
   Bfn.  Coefficient  Atom+Function         Bfn.  Coefficient  Atom+Function  
  ----- ------------  ---------------      ----- ------------  ---------------
   172      0.991905  10 C  s               173      0.050251  10 C  s         
   115      0.033602   7 C  s               181      0.031430  10 C  s         
   200     -0.031551  11 C  s               191      0.029512  11 C  s         
 
 Vector   16  Occ=2.000000D+00  E=-1.021274D+01
              MO Center=  1.6D-01, -4.5D+00,  5.3D-02, r^2= 3.2D-02
   Bfn.  Coefficient  Atom+Function         Bfn.  Coefficient  Atom+Function  
  ----- ------------  ---------------      ----- ------------  ---------------
   134      0.991895   8 C  s               200     -0.052012  11 C  s         
   135      0.050461   8 C  s               191      0.038465  11 C  s         
   314      0.037504  17 C  s                88     -0.027700   5 C  py        
 
 Vector   17  Occ=2.000000D+00  E=-1.020581D+01
              MO Center= -2.1D+00, -2.8D+00, -4.4D-02, r^2= 3.2D-02
   Bfn.  Coefficient  Atom+Function         Bfn.  Coefficient  Atom+Function  
  ----- ------------  ---------------      ----- ------------  ---------------
   115      0.992289   7 C  s               116      0.050713   7 C  s         
   181     -0.038249  10 C  s               172     -0.033522  10 C  s         
   120     -0.025158   7 C  s         
 
 Vector   18  Occ=2.000000D+00  E=-1.020527D+01
              MO Center= -1.1D+00, -5.0D+00,  1.5D-01, r^2= 3.4D-02
   Bfn.  Coefficient  Atom+Function         Bfn.  Coefficient  Atom+Function  
  ----- ------------  ---------------      ----- ------------  ---------------
   191      0.991631  11 C  s               192      0.050420  11 C  s         
   134     -0.039042   8 C  s               172     -0.030165  10 C  s         
 
 Vector   19  Occ=2.000000D+00  E=-9.477592D+00
              MO Center=  3.7D-02,  5.9D+00, -2.6D-01, r^2= 6.6D-02
   Bfn.  Coefficient  Atom+Function         Bfn.  Coefficient  Atom+Function  
  ----- ------------  ---------------      ----- ------------  ---------------
   343      1.022818  27 Cl s               342     -0.284602  27 Cl s         
   347      0.075960  27 Cl s               355      0.073160  27 Cl s         
   297     -0.046438  16 C  py              105     -0.040567   6 C  s         
   107     -0.029828   6 C  py              351     -0.026434  27 Cl s         
   162     -0.025906   9 C  s         
 
 Vector   20  Occ=2.000000D+00  E=-7.241616D+00
              MO Center=  3.7D-02,  5.9D+00, -2.6D-01, r^2= 5.8D-02
   Bfn.  Coefficient  Atom+Function         Bfn.  Coefficient  Atom+Function  
  ----- ------------  ---------------      ----- ------------  ---------------
   345      0.979907  27 Cl py              346     -0.130175  27 Cl pz        
   344      0.056695  27 Cl px              355      0.050341  27 Cl s         
   295     -0.042123  16 C  s               105     -0.033764   6 C  s         
   349      0.032128  27 Cl py              297     -0.026664  16 C  py        
 
 Vector   21  Occ=2.000000D+00  E=-7.231994D+00
              MO Center=  3.7D-02,  5.9D+00, -2.6D-01, r^2= 5.8D-02
   Bfn.  Coefficient  Atom+Function         Bfn.  Coefficient  Atom+Function  
  ----- ------------  ---------------      ----- ------------  ---------------
   344      0.928567  27 Cl px              346     -0.331712  27 Cl pz        
   345     -0.097791  27 Cl py              348      0.027635  27 Cl px        
 
 Vector   22  Occ=2.000000D+00  E=-7.231581D+00
              MO Center=  3.7D-02,  5.9D+00, -2.6D-01, r^2= 5.8D-02
   Bfn.  Coefficient  Atom+Function         Bfn.  Coefficient  Atom+Function  
  ----- ------------  ---------------      ----- ------------  ---------------
   346      0.924462  27 Cl pz              344      0.341098  27 Cl px        
   257     -0.113131  14 C  s               276      0.103843  15 C  s         
   345      0.103074  27 Cl py              238      0.098309  13 C  s         
   219     -0.082671  12 C  s               298      0.076783  16 C  pz        
    86      0.047835   5 C  s               108      0.046952   6 C  pz        
 
 Vector   23  Occ=2.000000D+00  E=-1.117480D+00
              MO Center=  2.4D+00, -2.8D+00, -2.8D-01, r^2= 1.1D+00
   Bfn.  Coefficient  Atom+Function         Bfn.  Coefficient  Atom+Function  
  ----- ------------  ---------------      ----- ------------  ---------------
     6      0.365176   1 O  s                 2      0.352728   1 O  s         
   306      0.229040  17 C  s                21      0.221484   2 O  s         
    25      0.218407   2 O  s               200      0.167161  11 C  s         
     1     -0.161527   1 O  s               105      0.156110   6 C  s         
   305     -0.117053  17 C  s               145      0.115179   8 C  py        
 
 Vector   24  Occ=2.000000D+00  E=-1.025703D+00
              MO Center=  2.2D+00, -2.3D+00, -1.7D-01, r^2= 1.4D+00
   Bfn.  Coefficient  Atom+Function         Bfn.  Coefficient  Atom+Function  
  ----- ------------  ---------------      ----- ------------  ---------------
    25      0.393427   2 O  s                21      0.358213   2 O  s         
     6     -0.324716   1 O  s                 2     -0.288158   1 O  s         
   308      0.227729  17 C  py              314      0.217950  17 C  s         
    20     -0.168640   2 O  s                 1      0.130868   1 O  s         
    86     -0.121688   5 C  s                23     -0.119893   2 O  py        
 
 Vector   25  Occ=2.000000D+00  E=-9.549664D-01
              MO Center= -5.9D-01, -9.5D-01, -2.2D-02, r^2= 1.5D+00
   Bfn.  Coefficient  Atom+Function         Bfn.  Coefficient  Atom+Function  
  ----- ------------  ---------------      ----- ------------  ---------------
    44      0.391335   3 N  s                40      0.335079   3 N  s         
   154      0.209326   9 C  s                48     -0.195787   3 N  s         
    59      0.177681   4 C  s               257      0.177042  14 C  s         
   219      0.170166  12 C  s                39     -0.167605   3 N  s         
   164     -0.165163   9 C  py              238     -0.119757  13 C  s         
 
 Vector   26  Occ=2.000000D+00  E=-9.047067D-01
              MO Center= -7.9D-02,  4.0D+00, -9.5D-03, r^2= 3.6D+00
   Bfn.  Coefficient  Atom+Function         Bfn.  Coefficient  Atom+Function  
  ----- ------------  ---------------      ----- ------------  ---------------
   347      0.393486  27 Cl s               287      0.239144  16 C  s         
   355     -0.218342  27 Cl s               343     -0.200716  27 Cl s         
   297      0.189248  16 C  py              291      0.169769  16 C  s         
   249      0.148919  14 C  s               268      0.146035  15 C  s         
   351      0.139155  27 Cl s               286     -0.123257  16 C  s         
 
 Vector   27  Occ=2.000000D+00  E=-8.704620D-01
              MO Center= -6.6D-01, -2.3D+00,  3.2D-02, r^2= 9.5D+00
   Bfn.  Coefficient  Atom+Function         Bfn.  Coefficient  Atom+Function  
  ----- ------------  ---------------      ----- ------------  ---------------
   347      0.183184  27 Cl s                78      0.171748   5 C  s         
   135      0.167036   8 C  s               192      0.156723  11 C  s         
   173      0.154080  10 C  s               116      0.143841   7 C  s         
   105      0.134237   6 C  s                59      0.131171   4 C  s         
   295     -0.126691  16 C  s               107      0.117333   6 C  py        
 
 Vector   28  Occ=2.000000D+00  E=-8.506489D-01
              MO Center= -2.0D-01,  2.5D+00,  6.6D-02, r^2= 1.1D+01
   Bfn.  Coefficient  Atom+Function         Bfn.  Coefficient  Atom+Function  
  ----- ------------  ---------------      ----- ------------  ---------------
   347      0.441423  27 Cl s               343     -0.220171  27 Cl s         
    97     -0.175624   6 C  s               351      0.162129  27 Cl s         
   211     -0.157725  12 C  s               295     -0.145665  16 C  s         
   230     -0.143369  13 C  s               164      0.123125   9 C  py        
   101     -0.116162   6 C  s                69      0.114037   4 C  py        
 
 Vector   29  Occ=2.000000D+00  E=-7.834178D-01
              MO Center= -5.6D-01, -2.8D+00,  1.1D-02, r^2= 8.0D+00
   Bfn.  Coefficient  Atom+Function         Bfn.  Coefficient  Atom+Function  
  ----- ------------  ---------------      ----- ------------  ---------------
    78      0.228459   5 C  s               173     -0.227883  10 C  s         
   314      0.211178  17 C  s                82      0.190178   5 C  s         
   177     -0.177607  10 C  s               192     -0.145666  11 C  s         
   116     -0.123362   7 C  s               347     -0.121505  27 Cl s         
   172      0.116556  10 C  s                77     -0.115965   5 C  s         
 
 Vector   30  Occ=2.000000D+00  E=-7.785283D-01
              MO Center= -4.4D-01, -7.7D-01,  3.8D-02, r^2= 1.3D+01
   Bfn.  Coefficient  Atom+Function         Bfn.  Coefficient  Atom+Function  
  ----- ------------  ---------------      ----- ------------  ---------------
   347      0.227782  27 Cl s               135      0.177768   8 C  s         
   116     -0.168417   7 C  s                59     -0.149686   4 C  s         
   154      0.143148   9 C  s               181     -0.143232  10 C  s         
    69     -0.142239   4 C  py              139      0.138609   8 C  s         
    97      0.134131   6 C  s               120     -0.132018   7 C  s         
 
 Vector   31  Occ=2.000000D+00  E=-7.740505D-01
              MO Center= -1.6D-01,  2.8D+00,  1.1D-01, r^2= 3.1D+00
   Bfn.  Coefficient  Atom+Function         Bfn.  Coefficient  Atom+Function  
  ----- ------------  ---------------      ----- ------------  ---------------
   268     -0.234395  15 C  s               249      0.219086  14 C  s         
   211      0.217188  12 C  s               230     -0.217888  13 C  s         
   272     -0.177269  15 C  s               215      0.176290  12 C  s         
   234     -0.175957  13 C  s               253      0.168855  14 C  s         
   290      0.122616  16 C  pz              267      0.118917  15 C  s         
 
 Vector   32  Occ=2.000000D+00  E=-7.459529D-01
              MO Center= -5.1D-01, -2.5D-01,  1.2D-01, r^2= 1.5D+01
   Bfn.  Coefficient  Atom+Function         Bfn.  Coefficient  Atom+Function  
  ----- ------------  ---------------      ----- ------------  ---------------
   347      0.237886  27 Cl s               192     -0.174829  11 C  s         
    97      0.173531   6 C  s               116      0.146088   7 C  s         
   101      0.139807   6 C  s               196     -0.136624  11 C  s         
   287     -0.136948  16 C  s                59      0.131476   4 C  s         
   249     -0.126866  14 C  s               120      0.122548   7 C  s         
 
 Vector   33  Occ=2.000000D+00  E=-6.813045D-01
              MO Center=  7.4D-02, -2.3D+00, -4.5D-02, r^2= 1.0D+01
   Bfn.  Coefficient  Atom+Function         Bfn.  Coefficient  Atom+Function  
  ----- ------------  ---------------      ----- ------------  ---------------
   314      0.282586  17 C  s                 3     -0.199683   1 O  px        
   306      0.172261  17 C  s               173      0.162945  10 C  s         
   200     -0.163152  11 C  s               310      0.152703  17 C  s         
    79      0.136957   5 C  px               59     -0.134716   4 C  s         
   154      0.134024   9 C  s                42      0.131221   3 N  py        
 
 Vector   34  Occ=2.000000D+00  E=-6.530604D-01
              MO Center= -1.3D-01, -5.3D-01,  2.5D-02, r^2= 1.3D+01
   Bfn.  Coefficient  Atom+Function         Bfn.  Coefficient  Atom+Function  
  ----- ------------  ---------------      ----- ------------  ---------------
   314     -0.165915  17 C  s               154      0.163456   9 C  s         
   158      0.158289   9 C  s                 3      0.152872   1 O  px        
   347     -0.153135  27 Cl s               287      0.141204  16 C  s         
   230     -0.139289  13 C  s                61     -0.135806   4 C  py        
   234     -0.131052  13 C  s                44     -0.125011   3 N  s         
 
 Vector   35  Occ=2.000000D+00  E=-6.385846D-01
              MO Center= -2.1D-01,  2.0D+00,  1.7D-01, r^2= 7.7D+00
   Bfn.  Coefficient  Atom+Function         Bfn.  Coefficient  Atom+Function  
  ----- ------------  ---------------      ----- ------------  ---------------
   290     -0.196066  16 C  pz              100      0.183559   6 C  pz        
   211      0.178319  12 C  s               268      0.166644  15 C  s         
   230     -0.161171  13 C  s               249     -0.159301  14 C  s         
   215      0.153924  12 C  s               234     -0.137648  13 C  s         
   257      0.121640  14 C  s               272      0.121588  15 C  s         
 
 Vector   36  Occ=2.000000D+00  E=-6.225703D-01
              MO Center= -2.0D-01, -2.7D+00, -2.5D-02, r^2= 8.2D+00
   Bfn.  Coefficient  Atom+Function         Bfn.  Coefficient  Atom+Function  
  ----- ------------  ---------------      ----- ------------  ---------------
   314     -0.202549  17 C  s                60      0.196403   4 C  px        
     3      0.184813   1 O  px              116     -0.169682   7 C  s         
   135     -0.167051   8 C  s                80      0.157367   5 C  py        
   139     -0.151199   8 C  s               193     -0.134072  11 C  px        
   120     -0.131911   7 C  s                78      0.123057   5 C  s         
 
 Vector   37  Occ=2.000000D+00  E=-6.061644D-01
              MO Center= -7.6D-03,  7.2D-02,  6.1D-02, r^2= 1.4D+01
   Bfn.  Coefficient  Atom+Function         Bfn.  Coefficient  Atom+Function  
  ----- ------------  ---------------      ----- ------------  ---------------
     3      0.174858   1 O  px               97     -0.148292   6 C  s         
   314     -0.146064  17 C  s               287     -0.143270  16 C  s         
    42      0.132890   3 N  py              252      0.127650  14 C  pz        
   291     -0.119088  16 C  s               233     -0.117223  13 C  pz        
   101     -0.114664   6 C  s               347      0.113121  27 Cl s         
 
 Vector   38  Occ=2.000000D+00  E=-5.748363D-01
              MO Center= -2.3D-01, -6.4D-01,  1.8D-01, r^2= 1.3D+01
   Bfn.  Coefficient  Atom+Function         Bfn.  Coefficient  Atom+Function  
  ----- ------------  ---------------      ----- ------------  ---------------
    44      0.158575   3 N  s                 3      0.147318   1 O  px        
    99      0.147793   6 C  py              158     -0.144791   9 C  s         
   233      0.127430  13 C  pz              154     -0.124513   9 C  s         
   157     -0.119356   9 C  pz              117     -0.113707   7 C  px        
   139      0.113105   8 C  s               162     -0.109974   9 C  s         
 
 Vector   39  Occ=2.000000D+00  E=-5.437063D-01
              MO Center= -8.9D-02, -2.1D+00,  7.5D-02, r^2= 9.8D+00
   Bfn.  Coefficient  Atom+Function         Bfn.  Coefficient  Atom+Function  
  ----- ------------  ---------------      ----- ------------  ---------------
   307      0.191556  17 C  px               42      0.173129   3 N  py        
   157     -0.166856   9 C  pz                3     -0.158462   1 O  px        
    61     -0.156465   4 C  py               79     -0.149393   5 C  px        
   174      0.138434  10 C  px               86     -0.132711   5 C  s         
   117      0.131244   7 C  px              194      0.130431  11 C  py        
 
 Vector   40  Occ=2.000000D+00  E=-5.245381D-01
              MO Center= -2.0D-01,  2.0D+00,  1.8D-01, r^2= 7.4D+00
   Bfn.  Coefficient  Atom+Function         Bfn.  Coefficient  Atom+Function  
  ----- ------------  ---------------      ----- ------------  ---------------
   349      0.196261  27 Cl py              270     -0.181746  15 C  py        
   157      0.178707   9 C  pz              232      0.178448  13 C  py        
   156     -0.158663   9 C  py              164     -0.156353   9 C  py        
   328      0.153492  20 H  s               347      0.144321  27 Cl s         
   295      0.143537  16 C  s               289     -0.136190  16 C  py        
 
 Vector   41  Occ=2.000000D+00  E=-5.198886D-01
              MO Center= -7.8D-02, -2.1D+00,  4.1D-02, r^2= 1.0D+01
   Bfn.  Coefficient  Atom+Function         Bfn.  Coefficient  Atom+Function  
  ----- ------------  ---------------      ----- ------------  ---------------
    42     -0.188513   3 N  py              120     -0.181778   7 C  s         
    25      0.174055   2 O  s               307      0.174862  17 C  px        
   310     -0.166811  17 C  s               257     -0.164396  14 C  s         
     3     -0.157473   1 O  px              200      0.151819  11 C  s         
    80     -0.149985   5 C  py              177      0.139223  10 C  s         
 
 Vector   42  Occ=2.000000D+00  E=-4.944529D-01
              MO Center=  1.4D+00, -1.9D+00, -7.6D-02, r^2= 8.5D+00
   Bfn.  Coefficient  Atom+Function         Bfn.  Coefficient  Atom+Function  
  ----- ------------  ---------------      ----- ------------  ---------------
   200      0.422802  11 C  s                25      0.357255   2 O  s         
    23      0.299943   2 O  py               86     -0.283412   5 C  s         
     4     -0.261704   1 O  py              144      0.225091   8 C  px        
   143     -0.197875   8 C  s               145      0.192041   8 C  py        
     6      0.180445   1 O  s               201      0.175375  11 C  px        
 
 Vector   43  Occ=2.000000D+00  E=-4.847202D-01
              MO Center= -5.1D-02,  1.5D+00,  1.5D-01, r^2= 1.4D+01
   Bfn.  Coefficient  Atom+Function         Bfn.  Coefficient  Atom+Function  
  ----- ------------  ---------------      ----- ------------  ---------------
   349      0.236087  27 Cl py              291     -0.166077  16 C  s         
   156      0.147664   9 C  py              215     -0.141334  12 C  s         
   334     -0.136727  23 H  s               253      0.135402  14 C  s         
     4      0.122969   1 O  py              234     -0.119701  13 C  s         
   101      0.116360   6 C  s               213      0.116705  12 C  py        
 
 Vector   44  Occ=2.000000D+00  E=-4.769699D-01
              MO Center= -1.8D-01, -3.1D+00, -4.1D-02, r^2= 5.6D+00
   Bfn.  Coefficient  Atom+Function         Bfn.  Coefficient  Atom+Function  
  ----- ------------  ---------------      ----- ------------  ---------------
    60      0.227138   4 C  px              137     -0.220678   8 C  py        
   193      0.210336  11 C  px              175      0.206552  10 C  py        
   200      0.206816  11 C  s                80      0.203498   5 C  py        
   118     -0.188887   7 C  py              181     -0.186765  10 C  s         
    67      0.157911   4 C  s               124      0.150443   7 C  s         
 
 Vector   45  Occ=2.000000D+00  E=-4.757214D-01
              MO Center= -4.1D-01, -9.1D-01,  2.9D-02, r^2= 1.6D+01
   Bfn.  Coefficient  Atom+Function         Bfn.  Coefficient  Atom+Function  
  ----- ------------  ---------------      ----- ------------  ---------------
   174      0.201694  10 C  px              194      0.173298  11 C  py        
    44      0.159486   3 N  s               307     -0.158571  17 C  px        
    63     -0.143823   4 C  s               271     -0.140259  15 C  pz        
    79      0.134126   5 C  px                4     -0.131689   1 O  py        
   251      0.130993  14 C  py              100      0.129701   6 C  pz        
 
 Vector   46  Occ=2.000000D+00  E=-4.660976D-01
              MO Center= -2.6D-01, -3.1D-01,  1.5D-01, r^2= 1.4D+01
   Bfn.  Coefficient  Atom+Function         Bfn.  Coefficient  Atom+Function  
  ----- ------------  ---------------      ----- ------------  ---------------
   290      0.183369  16 C  pz              194     -0.172465  11 C  py        
   100      0.166506   6 C  pz               42      0.158466   3 N  py        
   252     -0.155155  14 C  pz              157     -0.147554   9 C  pz        
   213     -0.144823  12 C  py              270     -0.133103  15 C  py        
   276      0.133749  15 C  s               232      0.128742  13 C  py        
 
 Vector   47  Occ=2.000000D+00  E=-4.580486D-01
              MO Center=  8.8D-01, -1.2D+00, -1.3D-01, r^2= 1.1D+01
   Bfn.  Coefficient  Atom+Function         Bfn.  Coefficient  Atom+Function  
  ----- ------------  ---------------      ----- ------------  ---------------
     5      0.257439   1 O  pz              309      0.245175  17 C  pz        
    24      0.203962   2 O  pz                9      0.163476   1 O  pz        
   200     -0.138143  11 C  s               271     -0.129563  15 C  pz        
    99      0.115371   6 C  py               28      0.114788   2 O  pz        
   289      0.114833  16 C  py              349     -0.114890  27 Cl py        
 
 Vector   48  Occ=2.000000D+00  E=-4.501844D-01
              MO Center= -9.2D-02,  3.3D-02,  1.3D-01, r^2= 1.5D+01
   Bfn.  Coefficient  Atom+Function         Bfn.  Coefficient  Atom+Function  
  ----- ------------  ---------------      ----- ------------  ---------------
   252      0.181556  14 C  pz              349     -0.176049  27 Cl py        
   117     -0.167859   7 C  px              233      0.168149  13 C  pz        
    99      0.159597   6 C  py              289      0.141198  16 C  py        
   137      0.139512   8 C  py              156     -0.135207   9 C  py        
   136     -0.128066   8 C  px              338      0.126379  25 H  s         
 
 Vector   49  Occ=2.000000D+00  E=-4.460587D-01
              MO Center= -1.7D-01,  1.9D+00,  1.3D-01, r^2= 8.9D+00
   Bfn.  Coefficient  Atom+Function         Bfn.  Coefficient  Atom+Function  
  ----- ------------  ---------------      ----- ------------  ---------------
   232      0.203267  13 C  py              271      0.198943  15 C  pz        
   251      0.195350  14 C  py              214      0.187783  12 C  pz        
   213     -0.170558  12 C  py              257     -0.161367  14 C  s         
   270     -0.156126  15 C  py              276      0.153147  15 C  s         
   334      0.135685  23 H  s               238      0.133828  13 C  s         
 
 Vector   50  Occ=2.000000D+00  E=-4.439270D-01
              MO Center=  2.8D-01, -9.3D-01, -3.8D-02, r^2= 1.3D+01
   Bfn.  Coefficient  Atom+Function         Bfn.  Coefficient  Atom+Function  
  ----- ------------  ---------------      ----- ------------  ---------------
     5      0.193946   1 O  pz              200     -0.193693  11 C  s         
   349      0.193523  27 Cl py              117     -0.183384   7 C  px        
   143      0.179408   8 C  s               136     -0.166452   8 C  px        
    24      0.156986   2 O  pz               99     -0.150824   6 C  py        
   289     -0.150111  16 C  py              156      0.147193   9 C  py        
 
 Vector   51  Occ=2.000000D+00  E=-4.153021D-01
              MO Center=  4.9D-01, -1.7D+00, -7.2D-02, r^2= 1.4D+01
   Bfn.  Coefficient  Atom+Function         Bfn.  Coefficient  Atom+Function  
  ----- ------------  ---------------      ----- ------------  ---------------
    86      0.284990   5 C  s               200     -0.265084  11 C  s         
     4      0.262880   1 O  py              314     -0.259697  17 C  s         
     6     -0.194970   1 O  s                67     -0.182175   4 C  s         
    23      0.173109   2 O  py              136      0.168945   8 C  px        
   143      0.164717   8 C  s               144     -0.164807   8 C  px        
 
 Vector   52  Occ=2.000000D+00  E=-4.113435D-01
              MO Center=  1.6D-01,  1.5D+00,  2.2D-02, r^2= 1.3D+01
   Bfn.  Coefficient  Atom+Function         Bfn.  Coefficient  Atom+Function  
  ----- ------------  ---------------      ----- ------------  ---------------
   288      0.216496  16 C  px              348      0.209716  27 Cl px        
    86     -0.175632   5 C  s               250      0.157524  14 C  px        
   269      0.152752  15 C  px                4     -0.150756   1 O  py        
   314      0.149801  17 C  s                98      0.147231   6 C  px        
    23     -0.146327   2 O  py              212      0.136558  12 C  px        
 
 Vector   53  Occ=2.000000D+00  E=-3.956712D-01
              MO Center= -2.5D-01,  3.2D-01, -1.7D-02, r^2= 1.6D+01
   Bfn.  Coefficient  Atom+Function         Bfn.  Coefficient  Atom+Function  
  ----- ------------  ---------------      ----- ------------  ---------------
   349      0.272813  27 Cl py              200      0.200022  11 C  s         
    62      0.185310   4 C  pz              232     -0.170314  13 C  py        
   270      0.161322  15 C  py              213     -0.160112  12 C  py        
   289     -0.159929  16 C  py              251      0.152638  14 C  py        
    43      0.140432   3 N  pz              119      0.134173   7 C  pz        
 
 Vector   54  Occ=2.000000D+00  E=-3.879794D-01
              MO Center= -4.1D-01, -1.7D+00,  2.3D-02, r^2= 1.6D+01
   Bfn.  Coefficient  Atom+Function         Bfn.  Coefficient  Atom+Function  
  ----- ------------  ---------------      ----- ------------  ---------------
   349     -0.186176  27 Cl py               23      0.171578   2 O  py        
   194      0.163270  11 C  py              137     -0.158348   8 C  py        
   193      0.156500  11 C  px              232      0.143907  13 C  py        
   136     -0.143082   8 C  px              270     -0.141293  15 C  py        
    80      0.135641   5 C  py              332     -0.133367  22 H  s         
 
 Vector   55  Occ=2.000000D+00  E=-3.774331D-01
              MO Center= -7.9D-01, -1.3D+00,  4.7D-02, r^2= 1.5D+01
   Bfn.  Coefficient  Atom+Function         Bfn.  Coefficient  Atom+Function  
  ----- ------------  ---------------      ----- ------------  ---------------
   175     -0.181759  10 C  py               41      0.169321   3 N  px        
   118      0.170007   7 C  py              194      0.169526  11 C  py        
   193     -0.163683  11 C  px              174      0.159825  10 C  px        
   100     -0.143976   6 C  pz              200      0.139425  11 C  s         
   324      0.131400  18 H  s               136      0.126468   8 C  px        
 
 Vector   56  Occ=2.000000D+00  E=-3.741236D-01
              MO Center= -6.2D-01, -1.1D+00,  5.1D-02, r^2= 1.4D+01
   Bfn.  Coefficient  Atom+Function         Bfn.  Coefficient  Atom+Function  
  ----- ------------  ---------------      ----- ------------  ---------------
   195      0.157930  11 C  pz              176      0.150122  10 C  pz        
   233     -0.148502  13 C  pz              181      0.146973  10 C  s         
   119      0.141919   7 C  pz              138      0.142040   8 C  pz        
   100      0.140333   6 C  pz              156      0.137306   9 C  py        
    81      0.134109   5 C  pz              295     -0.128388  16 C  s         
 
 Vector   57  Occ=2.000000D+00  E=-3.721965D-01
              MO Center= -3.7D-01,  7.4D-01,  1.1D-01, r^2= 1.3D+01
   Bfn.  Coefficient  Atom+Function         Bfn.  Coefficient  Atom+Function  
  ----- ------------  ---------------      ----- ------------  ---------------
   100      0.180350   6 C  pz              214     -0.176681  12 C  pz        
   233     -0.174217  13 C  pz              164     -0.144726   9 C  py        
   175     -0.140594  10 C  py              336      0.138116  24 H  s         
   213     -0.133353  12 C  py               67     -0.132673   4 C  s         
   271      0.132696  15 C  pz              337      0.132318  24 H  s         
 
 Vector   58  Occ=2.000000D+00  E=-3.650044D-01
              MO Center= -3.9D-01,  2.9D-01,  4.3D-02, r^2= 1.7D+01
   Bfn.  Coefficient  Atom+Function         Bfn.  Coefficient  Atom+Function  
  ----- ------------  ---------------      ----- ------------  ---------------
   348      0.309826  27 Cl px              155     -0.191796   9 C  px        
    98     -0.167023   6 C  px               60      0.159406   4 C  px        
   352      0.146494  27 Cl px              174      0.138520  10 C  px        
    80      0.135699   5 C  py              117     -0.134041   7 C  px        
   288      0.120918  16 C  px              344     -0.121025  27 Cl px        
 
 Vector   59  Occ=2.000000D+00  E=-3.329698D-01
              MO Center=  2.0D+00, -2.1D+00, -2.1D-01, r^2= 6.2D+00
   Bfn.  Coefficient  Atom+Function         Bfn.  Coefficient  Atom+Function  
  ----- ------------  ---------------      ----- ------------  ---------------
     5      0.439417   1 O  pz               24     -0.381004   2 O  pz        
   314      0.345545  17 C  s                 9      0.306437   1 O  pz        
    28     -0.245003   2 O  pz               69      0.174425   4 C  py        
   257      0.175007  14 C  s                87     -0.171933   5 C  px        
   200     -0.148518  11 C  s               164      0.137031   9 C  py        
 
 Vector   60  Occ=2.000000D+00  E=-3.285439D-01
              MO Center=  2.6D-01,  1.3D+00, -5.8D-02, r^2= 1.5D+01
   Bfn.  Coefficient  Atom+Function         Bfn.  Coefficient  Atom+Function  
  ----- ------------  ---------------      ----- ------------  ---------------
   348      0.385891  27 Cl px              314     -0.261740  17 C  s         
    41      0.199507   3 N  px              352      0.194607  27 Cl px        
   105      0.172774   6 C  s               155      0.168125   9 C  px        
    24      0.164427   2 O  pz                5     -0.159486   1 O  pz        
   344     -0.149530  27 Cl px               43     -0.143025   3 N  pz        
 
 Vector   61  Occ=2.000000D+00  E=-3.239210D-01
              MO Center=  1.7D-02,  5.6D+00, -2.2D-01, r^2= 2.2D+00
   Bfn.  Coefficient  Atom+Function         Bfn.  Coefficient  Atom+Function  
  ----- ------------  ---------------      ----- ------------  ---------------
   350      0.666913  27 Cl pz              354      0.327555  27 Cl pz        
   346     -0.257993  27 Cl pz              348      0.226163  27 Cl px        
   253     -0.143319  14 C  s               272      0.138836  15 C  s         
   290     -0.123766  16 C  pz              257      0.120592  14 C  s         
   238     -0.118715  13 C  s               219      0.116777  12 C  s         
 
 Vector   62  Occ=2.000000D+00  E=-3.077232D-01
              MO Center= -6.5D-01, -1.5D+00, -2.3D-02, r^2= 7.7D+00
   Bfn.  Coefficient  Atom+Function         Bfn.  Coefficient  Atom+Function  
  ----- ------------  ---------------      ----- ------------  ---------------
    43      0.268629   3 N  pz              257     -0.236427  14 C  s         
   195     -0.203203  11 C  pz               44     -0.194392   3 N  s         
    62      0.181323   4 C  pz              162      0.172195   9 C  s         
   329     -0.170546  20 H  s               164     -0.167691   9 C  py        
    61      0.164288   4 C  py               42     -0.163460   3 N  py        
 
 Vector   63  Occ=2.000000D+00  E=-2.870254D-01
              MO Center=  1.5D+00, -1.4D+00, -4.3D-02, r^2= 6.6D+00
   Bfn.  Coefficient  Atom+Function         Bfn.  Coefficient  Atom+Function  
  ----- ------------  ---------------      ----- ------------  ---------------
    22      0.496179   2 O  px               26      0.324576   2 O  px        
     4     -0.229961   1 O  py                8     -0.170522   1 O  py        
    23     -0.166023   2 O  py               79      0.148879   5 C  px        
   348      0.138376  27 Cl px               41      0.114607   3 N  px        
    82      0.114117   5 C  s                27     -0.108469   2 O  py        
 
 Vector   64  Occ=2.000000D+00  E=-2.778950D-01
              MO Center= -1.7D-01,  2.8D+00,  9.1D-02, r^2= 3.1D+00
   Bfn.  Coefficient  Atom+Function         Bfn.  Coefficient  Atom+Function  
  ----- ------------  ---------------      ----- ------------  ---------------
   269     -0.296076  15 C  px              212      0.276133  12 C  px        
   231     -0.273544  13 C  px              250      0.264727  14 C  px        
   273     -0.193254  15 C  px              216      0.178855  12 C  px        
   235     -0.171654  13 C  px              254      0.171434  14 C  px        
   124      0.116766   7 C  s               126     -0.114549   7 C  py        
 
 Vector   65  Occ=2.000000D+00  E=-2.730257D-01
              MO Center= -6.5D-01, -3.4D+00,  7.6D-03, r^2= 4.2D+00
   Bfn.  Coefficient  Atom+Function         Bfn.  Coefficient  Atom+Function  
  ----- ------------  ---------------      ----- ------------  ---------------
   200      0.472253  11 C  s                81      0.306281   5 C  pz        
   176     -0.289139  10 C  pz              143     -0.282422   8 C  s         
   144      0.278109   8 C  px              201      0.275378  11 C  px        
   119     -0.269171   7 C  pz              145      0.267688   8 C  py        
   138      0.258503   8 C  pz               86     -0.241322   5 C  s         
 
 Vector   66  Occ=2.000000D+00  E=-2.542587D-01
              MO Center= -3.0D-01,  1.8D+00,  1.0D-02, r^2= 9.8D+00
   Bfn.  Coefficient  Atom+Function         Bfn.  Coefficient  Atom+Function  
  ----- ------------  ---------------      ----- ------------  ---------------
   124      0.283486   7 C  s               348     -0.281000  27 Cl px        
   181     -0.271477  10 C  s               314     -0.269289  17 C  s         
    41      0.266352   3 N  px               67      0.247647   4 C  s         
    98     -0.246022   6 C  px              288      0.238629  16 C  px        
   183     -0.210690  10 C  py              126     -0.194216   7 C  py        
 
 Vector   67  Occ=2.000000D+00  E=-2.379887D-01
              MO Center= -6.6D-01, -1.9D+00, -7.2D-02, r^2= 8.0D+00
   Bfn.  Coefficient  Atom+Function         Bfn.  Coefficient  Atom+Function  
  ----- ------------  ---------------      ----- ------------  ---------------
    43      0.308876   3 N  pz               69     -0.291295   4 C  py        
   162      0.270807   9 C  s                67     -0.265734   4 C  s         
   195      0.257916  11 C  pz              105      0.229172   6 C  s         
    62     -0.217027   4 C  pz              119     -0.207356   7 C  pz        
    47      0.204856   3 N  pz               44     -0.203376   3 N  s         
 
 Vector   68  Occ=0.000000D+00  E=-7.330554D-02
              MO Center= -2.8D-01,  7.2D-01,  1.0D-01, r^2= 8.4D+00
   Bfn.  Coefficient  Atom+Function         Bfn.  Coefficient  Atom+Function  
  ----- ------------  ---------------      ----- ------------  ---------------
   181      0.815671  10 C  s                67     -0.700306   4 C  s         
   126      0.547652   7 C  py              124     -0.486190   7 C  s         
   183      0.467144  10 C  py              162      0.455553   9 C  s         
    86      0.432873   5 C  s                68      0.361663   4 C  px        
   201     -0.343959  11 C  px              295     -0.317638  16 C  s         
 
 Vector   69  Occ=0.000000D+00  E=-5.971326D-02
[...]
        Use of symmetry is : off
      Symmetry adaption is : off
         Schwarz screening :  0.10D-07

  !! WARNING !! The number of MO is less than the number of AO
 
              XC Information
              --------------
                  B3LYP Method XC Potential
              Hartree-Fock (Exact) Exchange   0.20          
                 Slater Exchange Functional   0.80 local    
             Becke 1988 Exchange Functional   0.72 non-local
       Lee-Yang-Parr Correlation Functional   0.81          
           VWN I RPA Correlation Functional   0.19 local    
 
             TDDFT Information
             -----------------
          Calculation type : Tamm-Dancoff TDDFT
         Wavefunction type : Restricted singlets
          No. of electrons :     134
           Alpha electrons :      67
            Beta electrons :      67
              No. of roots :      10
          Max subspacesize :    6000
            Max iterations :     100
               Target root :       1
           Target symmetry : none
      Symmetry restriction : off
                 Algorithm : Optimal
        Davidson threshold :  0.10D-03
 
            Memory Information
            ------------------
          Available GA space size is         419296444 doubles
          Available MA space size is          26202532 doubles
          Length of a trial vector is        19564
          Algorithm : Incore multiple tensor contraction
          Estimated peak GA usage is         363465988 doubles
          Estimated peak MA usage is             51000 doubles
 
   10 smallest eigenvalue differences (eV) 
--------------------------------------------------------
  No. Spin  Occ  Vir  Irrep   E(Occ)    E(Vir)   E(Diff)
--------------------------------------------------------
    1    1   67   68 a        -0.238    -0.073     4.481
    2    1   67   69 a        -0.238    -0.060     4.851
    3    1   66   68 a        -0.254    -0.073     4.924
    4    1   66   69 a        -0.254    -0.060     5.294
    5    1   65   68 a        -0.273    -0.073     5.435
    6    1   64   68 a        -0.278    -0.073     5.567
    7    1   67   70 a        -0.238    -0.032     5.605
    8    1   65   69 a        -0.273    -0.060     5.805
    9    1   63   68 a        -0.287    -0.073     5.816
   10    1   67   71 a        -0.238    -0.020     5.930
--------------------------------------------------------

  Entering Davidson iterations
  Restricted singlet excited states

  Iter   NTrls   NConv    DeltaV     DeltaE      Time   
  ----  ------  ------  ---------  ---------  --------- 
    1     10       0     0.20E+00   0.10+100       40.1
    2     20       0     0.73E-01   0.67E-01       40.4
    3     30       0     0.18E-01   0.62E-02       40.4
    4     40       0     0.21E-01   0.99E-03       40.4
    5     50       0     0.11E-01   0.22E-02       40.5
    6     60       3     0.48E-02   0.30E-03       40.6
    7     67       8     0.15E-02   0.44E-04       34.9
    8     69       9     0.40E-03   0.34E-05       22.3
    9     70       9     0.12E-03   0.29E-06       19.9
   10     71      10     0.63E-04   0.24E-07       19.9
  ----  ------  ------  ---------  ---------  --------- 
  Convergence criterion met
 
  Ground state a       -1204.943375668137 a.u.
 
  ----------------------------------------------------------------------------
  Root   1 singlet a              0.135196973 a.u.                3.6789 eV 
  ----------------------------------------------------------------------------
     Transition Moments    X  0.04849   Y -1.06083   Z -0.01363
     Transition Moments   XX  0.67600  XY  0.76195  XZ -0.48444
     Transition Moments   YY  1.09589  YZ -0.00550  ZZ  0.00893
     Dipole Oscillator Strength                    0.1016584202
     Electric Quadrupole                           0.0000000147
     Magnetic Dipole                               0.0000003306
     Total Oscillator Strength                     0.1016587655
 
     Occ.   62  a   ---  Virt.   68  a       -0.13202
     Occ.   66  a   ---  Virt.   68  a       -0.23195
     Occ.   66  a   ---  Virt.   69  a        0.06865
     Occ.   67  a   ---  Virt.   68  a       -0.94099
     Occ.   67  a   ---  Virt.   69  a        0.13277
     Occ.   67  a   ---  Virt.   76  a        0.06837
  ----------------------------------------------------------------------------
  Root   2 singlet a              0.154483832 a.u.                4.2037 eV 
  ----------------------------------------------------------------------------
     Transition Moments    X -0.46604   Y  1.13924   Z  0.01017
     Transition Moments   XX -0.74978  XY  2.29229  XZ  0.14309
     Transition Moments   YY -1.12020  YZ -0.15762  ZZ  0.50848
     Dipole Oscillator Strength                    0.1560462075
     Electric Quadrupole                           0.0000001184
     Magnetic Dipole                               0.0000007698
     Total Oscillator Strength                     0.1560470957
 
     Occ.   62  a   ---  Virt.   69  a        0.05118
     Occ.   63  a   ---  Virt.   68  a       -0.13840
     Occ.   63  a   ---  Virt.   69  a       -0.11999
     Occ.   65  a   ---  Virt.   68  a        0.17546
     Occ.   65  a   ---  Virt.   71  a        0.18839
     Occ.   66  a   ---  Virt.   68  a       -0.28045
     Occ.   67  a   ---  Virt.   68  a        0.18894
     Occ.   67  a   ---  Virt.   69  a        0.87550
  ----------------------------------------------------------------------------
  Root   3 singlet a              0.166772686 a.u.                4.5381 eV 
  ----------------------------------------------------------------------------
     Transition Moments    X  0.17001   Y  0.37574   Z -0.03222
     Transition Moments   XX -0.37222  XY -0.96788  XZ  0.03190
     Transition Moments   YY  4.10434  YZ -0.26585  ZZ -0.06351
     Dipole Oscillator Strength                    0.0190260608
     Electric Quadrupole                           0.0000001793
     Magnetic Dipole                               0.0000000279
     Total Oscillator Strength                     0.0190262680
 
     Occ.   63  a   ---  Virt.   68  a       -0.17403
     Occ.   63  a   ---  Virt.   69  a       -0.31643
     Occ.   63  a   ---  Virt.   80  a        0.05382
     Occ.   65  a   ---  Virt.   68  a       -0.30501
     Occ.   65  a   ---  Virt.   69  a       -0.07051
     Occ.   65  a   ---  Virt.   71  a       -0.12750
     Occ.   66  a   ---  Virt.   68  a       -0.46199
     Occ.   66  a   ---  Virt.   69  a       -0.70326
     Occ.   67  a   ---  Virt.   69  a       -0.11536
     Occ.   67  a   ---  Virt.   71  a        0.12231
  ----------------------------------------------------------------------------
  Root   4 singlet a              0.173074388 a.u.                4.7096 eV 
  ----------------------------------------------------------------------------
     Transition Moments    X -0.10209   Y -0.70508   Z -0.11471
     Transition Moments   XX  0.54804  XY  0.04980  XZ  0.00238
     Transition Moments   YY -3.28621  YZ -0.37704  ZZ -0.09979
     Dipole Oscillator Strength                    0.0600821773
     Electric Quadrupole                           0.0000001203
     Magnetic Dipole                               0.0000000600
     Total Oscillator Strength                     0.0600823576
 
     Occ.   63  a   ---  Virt.   69  a       -0.06554
     Occ.   64  a   ---  Virt.   68  a       -0.70768
     Occ.   64  a   ---  Virt.   69  a        0.11798
     Occ.   64  a   ---  Virt.   70  a        0.05088
     Occ.   65  a   ---  Virt.   68  a        0.06818
     Occ.   66  a   ---  Virt.   68  a        0.20656
     Occ.   66  a   ---  Virt.   69  a       -0.17529
     Occ.   66  a   ---  Virt.   70  a        0.43737
     Occ.   67  a   ---  Virt.   68  a       -0.05699
     Occ.   67  a   ---  Virt.   69  a        0.06098
     Occ.   67  a   ---  Virt.   70  a       -0.42704
     Occ.   67  a   ---  Virt.   71  a       -0.07231
  ----------------------------------------------------------------------------
  Root   5 singlet a              0.175374712 a.u.                4.7722 eV 
  ----------------------------------------------------------------------------
     Transition Moments    X -0.10598   Y  1.62767   Z -0.10050
     Transition Moments   XX -1.09821  XY -0.21958  XZ  0.02668
     Transition Moments   YY  4.85477  YZ -1.07845  ZZ  0.40588
     Dipole Oscillator Strength                    0.3122405057
     Electric Quadrupole                           0.0000003100
     Magnetic Dipole                               0.0000004419
     Total Oscillator Strength                     0.3122412576
 
     Occ.   60  a   ---  Virt.   68  a        0.05297
     Occ.   62  a   ---  Virt.   69  a        0.08271
     Occ.   63  a   ---  Virt.   68  a       -0.07837
     Occ.   63  a   ---  Virt.   69  a        0.11884
     Occ.   64  a   ---  Virt.   68  a       -0.23430
     Occ.   64  a   ---  Virt.   70  a       -0.07196
     Occ.   65  a   ---  Virt.   68  a       -0.55340
     Occ.   65  a   ---  Virt.   69  a        0.06138
     Occ.   66  a   ---  Virt.   68  a       -0.43774
     Occ.   66  a   ---  Virt.   69  a        0.54891
     Occ.   66  a   ---  Virt.   70  a        0.11012
     Occ.   67  a   ---  Virt.   68  a        0.13997
     Occ.   67  a   ---  Virt.   69  a       -0.07272
     Occ.   67  a   ---  Virt.   70  a       -0.11582
     Occ.   67  a   ---  Virt.   71  a        0.18879
  ----------------------------------------------------------------------------
  Root   6 singlet a              0.177930989 a.u.                4.8418 eV 
  ----------------------------------------------------------------------------
     Transition Moments    X  0.37622   Y  1.41389   Z -0.15906
     Transition Moments   XX -1.09323  XY -2.36260  XZ -0.09212
     Transition Moments   YY  6.17380  YZ -0.81950  ZZ -0.01056
     Dipole Oscillator Strength                    0.2569248736
     Electric Quadrupole                           0.0000006489
     Magnetic Dipole                               0.0000001465
     Total Oscillator Strength                     0.2569256691
 
     Occ.   60  a   ---  Virt.   69  a       -0.08201
     Occ.   62  a   ---  Virt.   68  a       -0.08968
     Occ.   62  a   ---  Virt.   69  a       -0.07518
     Occ.   63  a   ---  Virt.   68  a        0.38082
     Occ.   63  a   ---  Virt.   69  a        0.43904
     Occ.   63  a   ---  Virt.   80  a       -0.07421
     Occ.   64  a   ---  Virt.   68  a       -0.12151
     Occ.   64  a   ---  Virt.   70  a       -0.09182
     Occ.   65  a   ---  Virt.   68  a        0.50572
     Occ.   65  a   ---  Virt.   71  a       -0.05137
     Occ.   66  a   ---  Virt.   68  a       -0.50820
     Occ.   66  a   ---  Virt.   69  a       -0.11387
     Occ.   66  a   ---  Virt.   71  a       -0.05878
     Occ.   67  a   ---  Virt.   68  a        0.13596
     Occ.   67  a   ---  Virt.   69  a       -0.14430
     Occ.   67  a   ---  Virt.   71  a        0.07779
  ----------------------------------------------------------------------------
  Root   7 singlet a              0.181945113 a.u.                4.9510 eV 
  ----------------------------------------------------------------------------
     Transition Moments    X  0.34907   Y  0.42678   Z -0.07853
     Transition Moments   XX -0.57473  XY -2.03331  XZ  0.12070
     Transition Moments   YY  3.83783  YZ -0.33741  ZZ -0.06729
     Dipole Oscillator Strength                    0.0376206522
     Electric Quadrupole                           0.0000003237
     Magnetic Dipole                               0.0000002899
     Total Oscillator Strength                     0.0376212658
 
     Occ.   60  a   ---  Virt.   68  a        0.07760
     Occ.   60  a   ---  Virt.   69  a        0.07130
     Occ.   63  a   ---  Virt.   68  a       -0.45078
     Occ.   63  a   ---  Virt.   69  a       -0.41211
     Occ.   63  a   ---  Virt.   80  a        0.07178
     Occ.   64  a   ---  Virt.   68  a       -0.07395
     Occ.   65  a   ---  Virt.   68  a        0.50986
     Occ.   65  a   ---  Virt.   69  a       -0.31928
     Occ.   65  a   ---  Virt.   71  a       -0.11778
     Occ.   66  a   ---  Virt.   68  a       -0.15721
     Occ.   66  a   ---  Virt.   69  a        0.31741
     Occ.   67  a   ---  Virt.   69  a       -0.26615
     Occ.   67  a   ---  Virt.   71  a        0.09326
  ----------------------------------------------------------------------------
  Root   8 singlet a              0.187052351 a.u.                5.0900 eV 
  ----------------------------------------------------------------------------
     Transition Moments    X -0.07981   Y -0.27720   Z -0.16701
     Transition Moments   XX  0.33714  XY -0.07320  XZ  0.08064
     Transition Moments   YY -0.75701  YZ -0.78789  ZZ -0.28577
     Dipole Oscillator Strength                    0.0138548103
     Electric Quadrupole                           0.0000000325
     Magnetic Dipole                               0.0000000198
     Total Oscillator Strength                     0.0138548627
 
     Occ.   62  a   ---  Virt.   70  a        0.07212
     Occ.   64  a   ---  Virt.   68  a       -0.25747
     Occ.   66  a   ---  Virt.   70  a        0.41226
     Occ.   67  a   ---  Virt.   70  a        0.86698
  ----------------------------------------------------------------------------
  Root   9 singlet a              0.191561574 a.u.                5.2127 eV 
  ----------------------------------------------------------------------------
     Transition Moments    X  0.16148   Y -0.47920   Z  0.06129
     Transition Moments   XX  0.58360  XY -0.75537  XZ -0.26687
     Transition Moments   YY -3.34037  YZ  0.43723  ZZ  0.02786
     Dipole Oscillator Strength                    0.0331361705
     Electric Quadrupole                           0.0000001999
     Magnetic Dipole                               0.0000002499
     Total Oscillator Strength                     0.0331366204
 
     Occ.   60  a   ---  Virt.   69  a       -0.05363
     Occ.   62  a   ---  Virt.   68  a        0.06410
     Occ.   62  a   ---  Virt.   69  a       -0.09250
     Occ.   63  a   ---  Virt.   68  a       -0.74817
     Occ.   63  a   ---  Virt.   69  a        0.58726
     Occ.   63  a   ---  Virt.   80  a       -0.06288
     Occ.   64  a   ---  Virt.   70  a        0.05199
     Occ.   65  a   ---  Virt.   69  a        0.15019
     Occ.   66  a   ---  Virt.   69  a       -0.14054
     Occ.   67  a   ---  Virt.   71  a       -0.09206
  ----------------------------------------------------------------------------
  Root  10 singlet a              0.196873521 a.u.                5.3572 eV 
  ----------------------------------------------------------------------------
     Transition Moments    X -0.38058   Y -0.09675   Z  0.12110
     Transition Moments   XX -1.40852  XY  1.69111  XZ  0.43252
     Transition Moments   YY -1.77225  YZ  0.48021  ZZ  0.48547
     Dipole Oscillator Strength                    0.0221633965
     Electric Quadrupole                           0.0000001929
     Magnetic Dipole                               0.0000002483
     Total Oscillator Strength                     0.0221638376
 
     Occ.   60  a   ---  Virt.   68  a       -0.11282
     Occ.   62  a   ---  Virt.   68  a        0.38116
     Occ.   62  a   ---  Virt.   71  a        0.05136
     Occ.   63  a   ---  Virt.   69  a        0.23070
     Occ.   64  a   ---  Virt.   68  a        0.06581
     Occ.   64  a   ---  Virt.   69  a        0.06715
     Occ.   64  a   ---  Virt.   70  a        0.06820
     Occ.   65  a   ---  Virt.   69  a       -0.49148
     Occ.   65  a   ---  Virt.   71  a       -0.15806
     Occ.   66  a   ---  Virt.   68  a        0.12023
     Occ.   66  a   ---  Virt.   69  a       -0.06187
     Occ.   66  a   ---  Virt.   70  a        0.07357
     Occ.   66  a   ---  Virt.   71  a        0.06847
     Occ.   67  a   ---  Virt.   68  a       -0.05869
     Occ.   67  a   ---  Virt.   69  a        0.13501
     Occ.   67  a   ---  Virt.   71  a        0.63941
     Occ.   67  a   ---  Virt.   72  a        0.09702
     Occ.   67  a   ---  Virt.   79  a        0.05583
 
              Target root =      1
          Target symmetry = none
      Ground state energy =  -1204.943375668137
        Excitation energy =      0.135196972757
     Excited state energy =  -1204.808178695380
 
  stored tddft:energy   -1204.80817869538     

 Task  times  cpu:      410.5s     wall:      556.2s
 
 
                                NWChem Input Module
                                -------------------
 
 
 Summary of allocated global arrays
-----------------------------------
  No active global arrays



                         GA Statistics for process    0
                         ------------------------------

       create   destroy   get      put      acc     scatter   gather  read&inc
calls: 1051     1051     4.13e+06 2.36e+05 4.25e+06  314        0      922     
number of processes/call 1.05e+00 1.28e+00 1.17e+00 0.00e+00 0.00e+00
bytes total:             1.07e+10 3.83e+08 1.54e+10 6.73e+04 0.00e+00 7.38e+03
bytes remote:            9.18e+09 1.27e+08 1.44e+10 0.00e+00 0.00e+00 0.00e+00
Max memory consumed for GA by this process: 122651560 bytes
 
MA_summarize_allocated_blocks: starting scan ...
MA_summarize_allocated_blocks: scan completed: 0 heap blocks, 0 stack blocks
MA usage statistics:

	allocation statistics:
					      heap	     stack
					      ----	     -----
	current number of blocks	         0	         0
	maximum number of blocks	        20	        51
	current total bytes		         0	         0
	maximum total bytes		   2082008	  24503240
	maximum total K-bytes		      2083	     24504
	maximum total M-bytes		         3	        25
 
 
                                     CITATION
                                     --------
                Please cite the following reference when publishing
                           results obtained with NWChem:
 
                 M. Valiev, E.J. Bylaska, N. Govind, K. Kowalski,
              T.P. Straatsma, H.J.J. van Dam, D. Wang, J. Nieplocha,
                        E. Apra, T.L. Windus, W.A. de Jong
                 "NWChem: a comprehensive and scalable open-source
                  solution for large scale molecular simulations"
                      Comput. Phys. Commun. 181, 1477 (2010)
                           doi:10.1016/j.cpc.2010.04.018
 
                                      AUTHORS
                                      -------
          E. Apra, E. J. Bylaska, W. A. de Jong, N. Govind, K. Kowalski,
       T. P. Straatsma, M. Valiev, H. J. J. van Dam, D. Wang, T. L. Windus,
        J. Hammond, J. Autschbach, K. Bhaskaran-Nair, J. Brabec, K. Lopata,
    S. A. Fischer, S. Krishnamoorthy, M. Jacquelin, W. Ma, M. Klemm, O. Villa,
      Y. Chen, V. Anisimov, F. Aquino, S. Hirata, M. T. Hackler, V. Konjkov,
            D. Mejia-Rodriguez, T. Risthaus, M. Malagoli, A. Marenich,
   A. Otero-de-la-Roza, J. Mullin, P. Nichols, R. Peverati, J. Pittner, Y. Zhao,
        P.-D. Fan, A. Fonari, M. J. Williamson, R. J. Harrison, J. R. Rehr,
      M. Dupuis, D. Silverstein, D. M. A. Smith, J. Nieplocha, V. Tipparaju,
    M. Krishnan, B. E. Van Kuiken, A. Vazquez-Mayagoitia, L. Jensen, M. Swart,
      Q. Wu, T. Van Voorhis, A. A. Auer, M. Nooijen, L. D. Crosby, E. Brown,
      G. Cisneros, G. I. Fann, H. Fruchtl, J. Garza, K. Hirao, R. A. Kendall,
      J. A. Nichols, K. Tsemekhman, K. Wolinski, J. Anchell, D. E. Bernholdt,
      P. Borowski, T. Clark, D. Clerc, H. Dachsel, M. J. O. Deegan, K. Dyall,
    D. Elwood, E. Glendening, M. Gutowski, A. C. Hess, J. Jaffe, B. G. Johnson,
     J. Ju, R. Kobayashi, R. Kutteh, Z. Lin, R. Littlefield, X. Long, B. Meng,
      T. Nakajima, S. Niu, L. Pollack, M. Rosing, K. Glaesemann, G. Sandrone,
      M. Stave, H. Taylor, G. Thomas, J. H. van Lenthe, A. T. Wong, Z. Zhang.

 Total times  cpu:      410.6s     wall:      557.0s
