 argument  1 = nwc_dy01_b3lyp_meth_uvv.inp
                                         
                                         
 
 
              Northwest Computational Chemistry Package (NWChem) 6.8
              ------------------------------------------------------
 
 
                    Environmental Molecular Sciences Laboratory
                       Pacific Northwest National Laboratory
                                Richland, WA 99352
 
                              Copyright (c) 1994-2017
                       Pacific Northwest National Laboratory
                            Battelle Memorial Institute
 
             NWChem is an open-source computational chemistry package
                        distributed under the terms of the
                      Educational Community License (ECL) 2.0
             A copy of the license is included with this distribution
                              in the LICENSE.TXT file
 
                                  ACKNOWLEDGMENT
                                  --------------

            This software and its documentation were developed at the
            EMSL at Pacific Northwest National Laboratory, a multiprogram
            national laboratory, operated for the U.S. Department of Energy
            by Battelle under Contract Number DE-AC05-76RL01830. Support
            for this work was provided by the Department of Energy Office
            of Biological and Environmental Research, Office of Basic
            Energy Sciences, and the Office of Advanced Scientific Computing.


           Job information
           ---------------

    hostname        = cn0180
    program         = nwchem
    date            = Sat Apr 27 12:40:30 2024

    compiled        = Tue_Aug_14_10:52:15_2018
    source          = /panfs/roc/msisoft/nwchem/6.8_impi_2018
    nwchem branch   = 6.8
    nwchem revision = v6.8-47-gdf6c956
    ga revision     = ga-5.6.3
    use scalapack   = T
    input           = nwc_dy01_b3lyp_meth_uvv.inp
    prefix          = nwc_dy01_b3lyp_meth_uvv.
    data base       = ./nwc_dy01_b3lyp_meth_uvv.db
    status          = restart
    nproc           =       16
    time left       =     -1s



           Memory information
           ------------------

    heap     =   13107196 doubles =    100.0 Mbytes
    stack    =   13107201 doubles =    100.0 Mbytes
    global   =   26214400 doubles =    200.0 Mbytes (distinct from heap & stack)
    total    =   52428797 doubles =    400.0 Mbytes
    verify   = yes
    hardfail = no 


           Directory information
           ---------------------
 
  0 permanent = .
  0 scratch   = /scratch.global/lever046/nwchem
 
 
           Previous task information
           -------------------------

    Theory    = tddft                           
    Operation = energy                        
    Status    = fail                          
    Qmmm      = F
    Ignore    = F

 
           Geometries in the database
           --------------------------
 
       Name                              Natoms  Last Modified
       --------------------------------  ------  ------------------------
    1  geometry                              48  Thu Apr 25 14:47:07 2024  
 
  The geometry named "geometry" is the default for restart
 
 
 
           Basis sets in the database
           --------------------------
 
       Name                              Natoms  Last Modified
        --------------------------------  ------  ------------------------
    1  ao basis                               0  Thu Apr 25 14:47:07 2024  
 
  The basis set named "ao basis" is the default AO basis for restart
 
 
 
 
                                NWChem Input Module
                                -------------------
 
 
                         Dye01 molecule UV/Vis in methanol
                         ---------------------------------

 Scaling coordinates for geometry "geometry" by  1.889725989
 (inverse scale =  0.529177249)

 C1  symmetry detected

          ------
          auto-z
          ------
 
 
                             Geometry "geometry" -> ""
                             -------------------------
 
 Output coordinates in angstroms (scale by  1.889725989 to convert to a.u.)
 
  No.       Tag          Charge          X              Y              Z
 ---- ---------------- ---------- -------------- -------------- --------------
    1 N                    7.0000     0.36250018     2.17589883    -0.38375376
    2 N                    7.0000     0.82017963    -2.39795895     0.08025232
    3 C                    6.0000     0.52875626     1.37170511     0.66861590
    4 C                    6.0000     0.32536057    -1.08911285     0.26501854
    5 C                    6.0000    -0.12238492     3.42711777    -0.27252444
    6 C                    6.0000    -0.07443787    -3.50277643    -0.09889875
    7 C                    6.0000     1.06240347     0.01901804     0.47786096
    8 C                    6.0000     0.73091104     1.65392102    -1.71292216
    9 C                    6.0000     2.24934260    -2.72928413     0.05967368
   10 C                    6.0000    -0.47130759     3.91506128     1.00626701
   11 C                    6.0000    -1.47097288    -3.27033439    -0.11998246
   12 C                    6.0000     0.20650822     1.78947650     1.94409114
   13 C                    6.0000    -1.12437166    -0.89758352     0.22549423
   14 C                    6.0000    -0.29845400     3.07398426     2.11388199
   15 C                    6.0000    -1.97985069    -1.90906014     0.04397197
   16 C                    6.0000    -0.27893953     4.23282648    -1.40468888
   17 C                    6.0000     0.35698986    -4.83483794    -0.25661771
   18 C                    6.0000    -0.97663893     5.21991993     1.11875424
   19 C                    6.0000    -2.37952980    -4.32527680    -0.29485095
   20 C                    6.0000     2.18151324     1.95203401    -2.04078763
   21 C                    6.0000     2.71641397    -3.25455332     1.40142019
   22 C                    6.0000    -0.78226475     5.52625896    -1.27381910
   23 C                    6.0000    -0.55344985    -5.88267579    -0.42998614
   24 C                    6.0000    -1.13007895     6.01862366    -0.01628239
   25 C                    6.0000    -1.91914928    -5.62855949    -0.44974937
   26 H                    1.0000     2.14527865    -0.02361977     0.53663385
   27 H                    1.0000     0.55808365     0.57725174    -1.77097154
   28 H                    1.0000     0.04576597     2.02164641    -2.48003900
   29 H                    1.0000     2.49651163    -3.42655954    -0.74991095
   30 H                    1.0000     2.85111811    -1.84898551    -0.19239024
   31 H                    1.0000     0.33812965     1.14467799     2.80797321
   32 H                    1.0000    -1.56586250     0.08731788     0.33642589
   33 H                    1.0000    -0.55577864     3.41426000     3.11418316
   34 H                    1.0000    -3.04997681    -1.73549659     0.01646637
   35 H                    1.0000    -0.00321720     3.94275756    -2.41078231
   36 H                    1.0000     1.40517828    -5.11590308    -0.25344556
   37 H                    1.0000    -1.25394753     5.62431828     2.08967731
   38 H                    1.0000    -3.45113074    -4.14007224    -0.31081784
   39 H                    1.0000     2.86158320     1.50685390    -1.30875128
   40 H                    1.0000     2.43616329     1.55018556    -3.02640826
   41 H                    1.0000     2.37436976     3.02899996    -2.05510638
   42 H                    1.0000     3.78448886    -3.49169687     1.36158638
   43 H                    1.0000     2.57119183    -2.50123244     2.18361673
   44 H                    1.0000     2.18605648    -4.15655034     1.71797664
   45 H                    1.0000    -0.89718062     6.15602211    -2.15151862
   46 H                    1.0000    -0.18980855    -6.89947168    -0.54995605
   47 H                    1.0000    -1.52017495     7.02784411     0.08104285
   48 H                    1.0000    -2.62381158    -6.44347998    -0.58461349
 
      Atomic Mass 
      ----------- 
 
      N                 14.003070
      C                 12.000000
      H                  1.007825
 

 Effective nuclear repulsion energy (a.u.)    2059.7202795710

            Nuclear Dipole moment (a.u.) 
            ----------------------------
        X                 Y               Z
 ---------------- ---------------- ----------------
     0.0000000000     0.0000000000    -0.0000000000
 


                                Z-matrix (autoz)
                                -------- 

 Units are Angstrom for bonds and degrees for angles
 
      Type          Name      I     J     K     L     M      Value
      ----------- --------  ----- ----- ----- ----- ----- ----------
    1 Stretch                  1     3                       1.33486
    2 Stretch                  1     5                       1.34649
    3 Stretch                  1     8                       1.47475
    4 Stretch                  2     4                       1.41140
    5 Stretch                  2     6                       1.43285
    6 Stretch                  2     9                       1.46721
    7 Stretch                  3     7                       1.46660
    8 Stretch                  3    12                       1.38029
    9 Stretch                  4     7                       1.34777
   10 Stretch                  4    13                       1.46286
   11 Stretch                  5    10                       1.41250
   12 Stretch                  5    16                       1.39838
   13 Stretch                  6    11                       1.41590
   14 Stretch                  6    17                       1.40904
   15 Stretch                  7    26                       1.08531
   16 Stretch                  8    20                       1.51678
   17 Stretch                  8    27                       1.09200
   18 Stretch                  8    28                       1.09230
   19 Stretch                  9    21                       1.51471
   20 Stretch                  9    29                       1.09668
   21 Stretch                  9    30                       1.09572
   22 Stretch                 10    14                       1.40146
   23 Stretch                 10    18                       1.40381
   24 Stretch                 11    15                       1.46250
   25 Stretch                 11    19                       1.40320
   26 Stretch                 12    14                       1.39060
   27 Stretch                 12    31                       1.08599
   28 Stretch                 13    15                       1.33712
   29 Stretch                 13    32                       1.08501
   30 Stretch                 14    33                       1.08748
   31 Stretch                 15    34                       1.08446
   32 Stretch                 16    22                       1.39407
   33 Stretch                 16    35                       1.08277
   34 Stretch                 17    23                       1.39890
   35 Stretch                 17    36                       1.08522
   36 Stretch                 18    24                       1.39635
   37 Stretch                 18    37                       1.08772
   38 Stretch                 19    25                       1.39086
   39 Stretch                 19    38                       1.08760
   40 Stretch                 20    39                       1.09387
   41 Stretch                 20    40                       1.09443
   42 Stretch                 20    41                       1.09419
   43 Stretch                 21    42                       1.09481
   44 Stretch                 21    43                       1.09563
   45 Stretch                 21    44                       1.09320
   46 Stretch                 22    24                       1.39456
   47 Stretch                 22    45                       1.08635
   48 Stretch                 23    25                       1.38928
   49 Stretch                 23    46                       1.08651
   50 Stretch                 24    47                       1.08636
   51 Stretch                 25    48                       1.08574
   52 Bend                     1     3     7               119.89678
   53 Bend                     1     3    12               121.13683
   54 Bend                     1     5    10               118.99608
   55 Bend                     1     5    16               120.58662
   56 Bend                     1     8    20               111.35651
   57 Bend                     1     8    27               110.93757
   58 Bend                     1     8    28               110.92332
   59 Bend                     2     4     7               126.25660
   60 Bend                     2     4    13               117.73069
   61 Bend                     2     6    11               119.41302
   62 Bend                     2     6    17               123.48805
   63 Bend                     2     9    21               111.48428
   64 Bend                     2     9    29               111.92950
   65 Bend                     2     9    30               110.90185
   66 Bend                     3     1     5               122.65337
   67 Bend                     3     1     8               117.78801
   68 Bend                     3     7     4               125.44266
   69 Bend                     3     7    26               113.09407
   70 Bend                     3    12    14               118.50133
   71 Bend                     3    12    31               121.80742
   72 Bend                     4     2     6               120.83113
   73 Bend                     4     2     9               123.55532
   74 Bend                     4     7    26               121.45885
   75 Bend                     4    13    15               122.59364
   76 Bend                     4    13    32               121.28746
   77 Bend                     5     1     8               119.55861
   78 Bend                     5    10    14               118.53733
   79 Bend                     5    10    18               118.85318
   80 Bend                     5    16    22               119.93352
   81 Bend                     5    16    35               124.71045
   82 Bend                     6     2     9               115.61340
   83 Bend                     6    11    15               119.62520
   84 Bend                     6    11    19               121.13578
   85 Bend                     6    17    23               121.51497
   86 Bend                     6    17    36               122.70092
   87 Bend                     7     3    12               118.96639
   88 Bend                     7     4    13               116.01270
   89 Bend                     8    20    39               111.71182
   90 Bend                     8    20    40               110.18357
   91 Bend                     8    20    41               111.39794
   92 Bend                     9    21    42               110.10320
   93 Bend                     9    21    43               110.67670
   94 Bend                     9    21    44               113.14332
   95 Bend                    10     5    16               120.41730
   96 Bend                    10    14    12               120.17506
   97 Bend                    10    14    33               120.66386
   98 Bend                    10    18    24               120.40443
   99 Bend                    10    18    37               120.58929
  100 Bend                    11     6    17               117.09884
  101 Bend                    11    15    13               119.78230
  102 Bend                    11    15    34               119.30624
  103 Bend                    11    19    25               120.26712
  104 Bend                    11    19    38               120.78175
  105 Bend                    12    14    33               119.16108
  106 Bend                    13    15    34               120.91146
  107 Bend                    14    10    18               122.60949
  108 Bend                    14    12    31               119.69122
  109 Bend                    15    11    19               119.23901
  110 Bend                    15    13    32               116.11747
  111 Bend                    16    22    24               120.15056
  112 Bend                    16    22    45               120.01335
  113 Bend                    17    23    25               120.30031
  114 Bend                    17    23    46               119.79146
  115 Bend                    18    24    22               120.24100
  116 Bend                    18    24    47               119.86888
  117 Bend                    19    25    23               119.68272
  118 Bend                    19    25    48               120.15315
  119 Bend                    20     8    27               109.49087
  120 Bend                    20     8    28               112.45205
  121 Bend                    21     9    29               111.34211
  122 Bend                    21     9    30               108.24170
  123 Bend                    22    16    35               115.32320
  124 Bend                    22    24    47               119.89003
  125 Bend                    23    17    36               115.78407
  126 Bend                    23    25    48               120.16411
  127 Bend                    24    18    37               119.00628
  128 Bend                    24    22    45               119.83439
  129 Bend                    25    19    38               118.95111
  130 Bend                    25    23    46               119.90823
  131 Bend                    27     8    28               101.26349
  132 Bend                    29     9    30               102.54483
  133 Bend                    39    20    40               107.97436
  134 Bend                    39    20    41               107.44245
  135 Bend                    40    20    41               107.97488
  136 Bend                    42    21    43               107.71105
  137 Bend                    42    21    44               107.76473
  138 Bend                    43    21    44               107.23410
  139 Torsion                  1     3     7     4         -91.11020
  140 Torsion                  1     3     7    26          89.64960
  141 Torsion                  1     3    12    14          -0.00718
  142 Torsion                  1     3    12    31        -179.94694
  143 Torsion                  1     5    10    14          -0.00519
  144 Torsion                  1     5    10    18        -179.99509
  145 Torsion                  1     5    16    22         179.99884
  146 Torsion                  1     5    16    35          -2.18573
  147 Torsion                  1     8    20    39          59.54884
  148 Torsion                  1     8    20    40         179.56617
  149 Torsion                  1     8    20    41         -60.62030
  150 Torsion                  2     4     7     3        -179.95810
  151 Torsion                  2     4     7    26          -0.77745
  152 Torsion                  2     4    13    15           1.05802
  153 Torsion                  2     4    13    32        -178.49046
  154 Torsion                  2     6    11    15          -0.13271
  155 Torsion                  2     6    11    19         179.91540
  156 Torsion                  2     6    17    23        -179.94928
  157 Torsion                  2     6    17    36          -0.03051
  158 Torsion                  2     9    21    42        -179.84898
  159 Torsion                  2     9    21    43         -60.87639
  160 Torsion                  2     9    21    44          59.50163
  161 Torsion                  3     1     5    10          -0.00021
  162 Torsion                  3     1     5    16        -179.99771
  163 Torsion                  3     1     8    20         -89.99522
  164 Torsion                  3     1     8    27          32.22638
  165 Torsion                  3     1     8    28         143.95300
  166 Torsion                  3     7     4    13           0.01396
  167 Torsion                  3    12    14    10           0.00164
  168 Torsion                  3    12    14    33        -179.99149
  169 Torsion                  4     2     6    11           1.41413
  170 Torsion                  4     2     6    17        -178.47593
  171 Torsion                  4     2     9    21          98.25106
  172 Torsion                  4     2     9    29        -136.29300
  173 Torsion                  4     2     9    30         -22.44009
  174 Torsion                  4     7     3    12          88.89643
  175 Torsion                  4    13    15    11           0.18860
  176 Torsion                  4    13    15    34        -179.82587
  177 Torsion                  5     1     3     7        -179.98665
  178 Torsion                  5     1     3    12           0.00658
  179 Torsion                  5     1     8    20          89.99776
  180 Torsion                  5     1     8    27        -147.78064
  181 Torsion                  5     1     8    28         -36.05402
  182 Torsion                  5    10    14    12           0.00439
  183 Torsion                  5    10    14    33         179.99742
  184 Torsion                  5    10    18    24          -0.00721
  185 Torsion                  5    10    18    37        -179.97887
  186 Torsion                  5    16    22    24          -0.00041
  187 Torsion                  5    16    22    45         179.52534
  188 Torsion                  6     2     4     7         178.12322
  189 Torsion                  6     2     4    13          -1.84841
  190 Torsion                  6     2     9    21         -81.60969
  191 Torsion                  6     2     9    29          43.84625
  192 Torsion                  6     2     9    30         157.69916
  193 Torsion                  6    11    15    13          -0.65859
  194 Torsion                  6    11    15    34         179.35564
  195 Torsion                  6    11    19    25           0.09642
  196 Torsion                  6    11    19    38        -179.95728
  197 Torsion                  6    17    23    25          -0.03671
  198 Torsion                  6    17    23    46         179.94383
  199 Torsion                  7     3     1     8           0.00610
  200 Torsion                  7     3    12    14         179.98611
  201 Torsion                  7     3    12    31           0.04634
  202 Torsion                  7     4     2     9          -1.73055
  203 Torsion                  7     4    13    15        -178.91653
  204 Torsion                  7     4    13    32           1.53499
  205 Torsion                  8     1     3    12         179.99932
  206 Torsion                  8     1     5    10        -179.99283
  207 Torsion                  8     1     5    16           0.00967
  208 Torsion                  9     2     4    13         178.29782
  209 Torsion                  9     2     6    11        -178.72101
  210 Torsion                  9     2     6    17           1.38893
  211 Torsion                 10     5    16    22           0.00137
  212 Torsion                 10     5    16    35         177.81680
  213 Torsion                 10    14    12    31         179.94272
  214 Torsion                 10    18    24    22           0.00826
  215 Torsion                 10    18    24    47        -179.88242
  216 Torsion                 11     6    17    23           0.15829
  217 Torsion                 11     6    17    36        -179.92293
  218 Torsion                 11    15    13    32         179.75887
  219 Torsion                 11    19    25    23           0.03214
  220 Torsion                 11    19    25    48         179.98023
  221 Torsion                 12     3     7    26         -90.34377
  222 Torsion                 12    14    10    18         179.99389
  223 Torsion                 13     4     7    26         179.19461
  224 Torsion                 13    15    11    19         179.29421
  225 Torsion                 14    10     5    16         179.99231
  226 Torsion                 14    10    18    24        -179.99667
  227 Torsion                 14    10    18    37           0.03167
  228 Torsion                 15    11     6    17         179.76429
  229 Torsion                 15    11    19    25        -179.85565
  230 Torsion                 15    11    19    38           0.09065
  231 Torsion                 16     5    10    18           0.00242
  232 Torsion                 16    22    24    18          -0.00439
  233 Torsion                 16    22    24    47         179.88627
  234 Torsion                 17     6    11    19          -0.18760
  235 Torsion                 17    23    25    19          -0.06191
  236 Torsion                 17    23    25    48         179.99001
  237 Torsion                 18    10    14    33          -0.01308
  238 Torsion                 18    24    22    45        -179.53099
  239 Torsion                 19    11    15    34          -0.69155
  240 Torsion                 19    25    23    46         179.95757
  241 Torsion                 22    24    18    37         179.98036
  242 Torsion                 23    25    19    38        -179.91514
  243 Torsion                 24    22    16    35        -178.01379
  244 Torsion                 25    23    17    36        -179.96080
  245 Torsion                 27     8    20    39         -63.50453
  246 Torsion                 27     8    20    40          56.51280
  247 Torsion                 27     8    20    41         176.32633
  248 Torsion                 28     8    20    39        -175.24776
  249 Torsion                 28     8    20    40         -55.23043
  250 Torsion                 28     8    20    41          64.58311
  251 Torsion                 29     9    21    42          54.36988
  252 Torsion                 29     9    21    43         173.34246
  253 Torsion                 29     9    21    44         -66.27952
  254 Torsion                 30     9    21    42         -57.61212
  255 Torsion                 30     9    21    43          61.36046
  256 Torsion                 30     9    21    44        -178.26151
  257 Torsion                 31    12    14    33          -0.05042
  258 Torsion                 32    13    15    34          -0.25560
  259 Torsion                 35    16    22    45           1.51197
  260 Torsion                 36    17    23    46           0.01974
  261 Torsion                 37    18    24    47           0.08968
  262 Torsion                 38    19    25    48           0.03295
  263 Torsion                 45    22    24    47           0.35967
  264 Torsion                 46    23    25    48           0.00949
 
 
            XYZ format geometry
            -------------------
    48
 geometry
 N                     0.36250018     2.17589883    -0.38375376
 N                     0.82017963    -2.39795895     0.08025232
 C                     0.52875626     1.37170511     0.66861590
 C                     0.32536057    -1.08911285     0.26501854
 C                    -0.12238492     3.42711777    -0.27252444
 C                    -0.07443787    -3.50277643    -0.09889875
 C                     1.06240347     0.01901804     0.47786096
 C                     0.73091104     1.65392102    -1.71292216
 C                     2.24934260    -2.72928413     0.05967368
 C                    -0.47130759     3.91506128     1.00626701
 C                    -1.47097288    -3.27033439    -0.11998246
 C                     0.20650822     1.78947650     1.94409114
 C                    -1.12437166    -0.89758352     0.22549423
 C                    -0.29845400     3.07398426     2.11388199
 C                    -1.97985069    -1.90906014     0.04397197
 C                    -0.27893953     4.23282648    -1.40468888
 C                     0.35698986    -4.83483794    -0.25661771
 C                    -0.97663893     5.21991993     1.11875424
 C                    -2.37952980    -4.32527680    -0.29485095
 C                     2.18151324     1.95203401    -2.04078763
 C                     2.71641397    -3.25455332     1.40142019
 C                    -0.78226475     5.52625896    -1.27381910
 C                    -0.55344985    -5.88267579    -0.42998614
 C                    -1.13007895     6.01862366    -0.01628239
 C                    -1.91914928    -5.62855949    -0.44974937
 H                     2.14527865    -0.02361977     0.53663385
 H                     0.55808365     0.57725174    -1.77097154
 H                     0.04576597     2.02164641    -2.48003900
 H                     2.49651163    -3.42655954    -0.74991095
 H                     2.85111811    -1.84898551    -0.19239024
 H                     0.33812965     1.14467799     2.80797321
 H                    -1.56586250     0.08731788     0.33642589
 H                    -0.55577864     3.41426000     3.11418316
 H                    -3.04997681    -1.73549659     0.01646637
 H                    -0.00321720     3.94275756    -2.41078231
 H                     1.40517828    -5.11590308    -0.25344556
 H                    -1.25394753     5.62431828     2.08967731
 H                    -3.45113074    -4.14007224    -0.31081784
 H                     2.86158320     1.50685390    -1.30875128
 H                     2.43616329     1.55018556    -3.02640826
 H                     2.37436976     3.02899996    -2.05510638
 H                     3.78448886    -3.49169687     1.36158638
 H                     2.57119183    -2.50123244     2.18361673
 H                     2.18605648    -4.15655034     1.71797664
 H                    -0.89718062     6.15602211    -2.15151862
 H                    -0.18980855    -6.89947168    -0.54995605
 H                    -1.52017495     7.02784411     0.08104285
 H                    -2.62381158    -6.44347998    -0.58461349
 
 ==============================================================================
                                internuclear distances
 ------------------------------------------------------------------------------
       center one      |      center two      | atomic units |  angstroms
 ------------------------------------------------------------------------------
    3 C                |   1 N                |     2.52252  |     1.33486
    4 C                |   2 N                |     2.66717  |     1.41140
    5 C                |   1 N                |     2.54450  |     1.34649
    6 C                |   2 N                |     2.70769  |     1.43285
    7 C                |   3 C                |     2.77148  |     1.46660
    7 C                |   4 C                |     2.54692  |     1.34777
    8 C                |   1 N                |     2.78687  |     1.47475
    9 C                |   2 N                |     2.77263  |     1.46721
   10 C                |   5 C                |     2.66923  |     1.41250
   11 C                |   6 C                |     2.67567  |     1.41590
   12 C                |   3 C                |     2.60838  |     1.38029
   13 C                |   4 C                |     2.76441  |     1.46286
   14 C                |  10 C                |     2.64838  |     1.40146
   14 C                |  12 C                |     2.62786  |     1.39060
   15 C                |  11 C                |     2.76372  |     1.46250
   15 C                |  13 C                |     2.52678  |     1.33712
   16 C                |   5 C                |     2.64256  |     1.39838
   17 C                |   6 C                |     2.66270  |     1.40904
   18 C                |  10 C                |     2.65281  |     1.40381
   19 C                |  11 C                |     2.65166  |     1.40320
   20 C                |   8 C                |     2.86629  |     1.51678
   21 C                |   9 C                |     2.86239  |     1.51471
   22 C                |  16 C                |     2.63441  |     1.39407
   23 C                |  17 C                |     2.64354  |     1.39890
   24 C                |  18 C                |     2.63871  |     1.39635
   24 C                |  22 C                |     2.63534  |     1.39456
   25 C                |  19 C                |     2.62834  |     1.39086
   25 C                |  23 C                |     2.62536  |     1.38928
   26 H                |   7 C                |     2.05093  |     1.08531
   27 H                |   8 C                |     2.06357  |     1.09200
   28 H                |   8 C                |     2.06414  |     1.09230
   29 H                |   9 C                |     2.07243  |     1.09668
   30 H                |   9 C                |     2.07060  |     1.09572
   31 H                |  12 C                |     2.05223  |     1.08599
   32 H                |  13 C                |     2.05038  |     1.08501
   33 H                |  14 C                |     2.05503  |     1.08748
   34 H                |  15 C                |     2.04933  |     1.08446
   35 H                |  16 C                |     2.04614  |     1.08277
   36 H                |  17 C                |     2.05077  |     1.08522
   37 H                |  18 C                |     2.05549  |     1.08772
   38 H                |  19 C                |     2.05528  |     1.08760
   39 H                |  20 C                |     2.06712  |     1.09387
   40 H                |  20 C                |     2.06817  |     1.09443
   41 H                |  20 C                |     2.06772  |     1.09419
   42 H                |  21 C                |     2.06889  |     1.09481
   43 H                |  21 C                |     2.07045  |     1.09563
   44 H                |  21 C                |     2.06585  |     1.09320
   45 H                |  22 C                |     2.05291  |     1.08635
   46 H                |  23 C                |     2.05320  |     1.08651
   47 H                |  24 C                |     2.05292  |     1.08636
   48 H                |  25 C                |     2.05175  |     1.08574
 ------------------------------------------------------------------------------
                         number of included internuclear distances:         51
 ==============================================================================



 ==============================================================================
                                 internuclear angles
 ------------------------------------------------------------------------------
        center 1       |       center 2       |       center 3       |  degrees
 ------------------------------------------------------------------------------
    3 C                |   1 N                |   5 C                |   122.65
    3 C                |   1 N                |   8 C                |   117.79
    5 C                |   1 N                |   8 C                |   119.56
    4 C                |   2 N                |   6 C                |   120.83
    4 C                |   2 N                |   9 C                |   123.56
    6 C                |   2 N                |   9 C                |   115.61
    1 N                |   3 C                |   7 C                |   119.90
    1 N                |   3 C                |  12 C                |   121.14
    7 C                |   3 C                |  12 C                |   118.97
    2 N                |   4 C                |   7 C                |   126.26
    2 N                |   4 C                |  13 C                |   117.73
    7 C                |   4 C                |  13 C                |   116.01
    1 N                |   5 C                |  10 C                |   119.00
    1 N                |   5 C                |  16 C                |   120.59
   10 C                |   5 C                |  16 C                |   120.42
    2 N                |   6 C                |  11 C                |   119.41
    2 N                |   6 C                |  17 C                |   123.49
   11 C                |   6 C                |  17 C                |   117.10
    3 C                |   7 C                |   4 C                |   125.44
    3 C                |   7 C                |  26 H                |   113.09
    4 C                |   7 C                |  26 H                |   121.46
    1 N                |   8 C                |  20 C                |   111.36
    1 N                |   8 C                |  27 H                |   110.94
    1 N                |   8 C                |  28 H                |   110.92
   20 C                |   8 C                |  27 H                |   109.49
   20 C                |   8 C                |  28 H                |   112.45
   27 H                |   8 C                |  28 H                |   101.26
    2 N                |   9 C                |  21 C                |   111.48
    2 N                |   9 C                |  29 H                |   111.93
    2 N                |   9 C                |  30 H                |   110.90
   21 C                |   9 C                |  29 H                |   111.34
   21 C                |   9 C                |  30 H                |   108.24
   29 H                |   9 C                |  30 H                |   102.54
    5 C                |  10 C                |  14 C                |   118.54
    5 C                |  10 C                |  18 C                |   118.85
   14 C                |  10 C                |  18 C                |   122.61
    6 C                |  11 C                |  15 C                |   119.63
    6 C                |  11 C                |  19 C                |   121.14
   15 C                |  11 C                |  19 C                |   119.24
    3 C                |  12 C                |  14 C                |   118.50
    3 C                |  12 C                |  31 H                |   121.81
   14 C                |  12 C                |  31 H                |   119.69
    4 C                |  13 C                |  15 C                |   122.59
    4 C                |  13 C                |  32 H                |   121.29
   15 C                |  13 C                |  32 H                |   116.12
   10 C                |  14 C                |  12 C                |   120.18
   10 C                |  14 C                |  33 H                |   120.66
   12 C                |  14 C                |  33 H                |   119.16
   11 C                |  15 C                |  13 C                |   119.78
   11 C                |  15 C                |  34 H                |   119.31
   13 C                |  15 C                |  34 H                |   120.91
    5 C                |  16 C                |  22 C                |   119.93
    5 C                |  16 C                |  35 H                |   124.71
   22 C                |  16 C                |  35 H                |   115.32
    6 C                |  17 C                |  23 C                |   121.51
    6 C                |  17 C                |  36 H                |   122.70
   23 C                |  17 C                |  36 H                |   115.78
   10 C                |  18 C                |  24 C                |   120.40
   10 C                |  18 C                |  37 H                |   120.59
   24 C                |  18 C                |  37 H                |   119.01
   11 C                |  19 C                |  25 C                |   120.27
   11 C                |  19 C                |  38 H                |   120.78
   25 C                |  19 C                |  38 H                |   118.95
    8 C                |  20 C                |  39 H                |   111.71
    8 C                |  20 C                |  40 H                |   110.18
    8 C                |  20 C                |  41 H                |   111.40
   39 H                |  20 C                |  40 H                |   107.97
   39 H                |  20 C                |  41 H                |   107.44
   40 H                |  20 C                |  41 H                |   107.97
    9 C                |  21 C                |  42 H                |   110.10
    9 C                |  21 C                |  43 H                |   110.68
    9 C                |  21 C                |  44 H                |   113.14
   42 H                |  21 C                |  43 H                |   107.71
   42 H                |  21 C                |  44 H                |   107.76
   43 H                |  21 C                |  44 H                |   107.23
   16 C                |  22 C                |  24 C                |   120.15
   16 C                |  22 C                |  45 H                |   120.01
   24 C                |  22 C                |  45 H                |   119.83
   17 C                |  23 C                |  25 C                |   120.30
   17 C                |  23 C                |  46 H                |   119.79
   25 C                |  23 C                |  46 H                |   119.91
   18 C                |  24 C                |  22 C                |   120.24
   18 C                |  24 C                |  47 H                |   119.87
   22 C                |  24 C                |  47 H                |   119.89
   19 C                |  25 C                |  23 C                |   119.68
   19 C                |  25 C                |  48 H                |   120.15
   23 C                |  25 C                |  48 H                |   120.16
 ------------------------------------------------------------------------------
                            number of included internuclear angles:         87
 ==============================================================================



  library name resolved from: environment
  library file name is: <
 /common/software/install/migrated/nwchem/6.5_ompi_1.7.2/src/basis/libraries/>
  


 Summary of "ao basis" -> "" (cartesian)
 ------------------------------------------------------------------------------
       Tag                 Description            Shells   Functions and Types
 ---------------- ------------------------------  ------  ---------------------
 *                          6-31+G*                   on all atoms 


 
                                 NWChem DFT Module
                                 -----------------
 
 
                         Dye01 molecule UV/Vis in methanol
 
 
                      Basis "ao basis" -> "ao basis" (cartesian)
                      -----
  N (Nitrogen)
  ------------
            Exponent  Coefficients 
       -------------- ---------------------------------------------------------
  1 S  4.17351100E+03  0.001835
  1 S  6.27457900E+02  0.013995
  1 S  1.42902100E+02  0.068587
  1 S  4.02343300E+01  0.232241
  1 S  1.28202100E+01  0.469070
  1 S  4.39043700E+00  0.360455
 
  2 S  1.16263580E+01 -0.114961
  2 S  2.71628000E+00 -0.169118
  2 S  7.72218000E-01  1.145852
 
  3 P  1.16263580E+01  0.067580
  3 P  2.71628000E+00  0.323907
  3 P  7.72218000E-01  0.740895
 
  4 S  2.12031300E-01  1.000000
 
  5 P  2.12031300E-01  1.000000
 
  6 S  6.39000000E-02  1.000000
 
  7 P  6.39000000E-02  1.000000
 
  8 D  8.00000000E-01  1.000000
 
  C (Carbon)
  ----------
            Exponent  Coefficients 
       -------------- ---------------------------------------------------------
  1 S  3.04752490E+03  0.001835
  1 S  4.57369510E+02  0.014037
  1 S  1.03948690E+02  0.068843
  1 S  2.92101550E+01  0.232184
  1 S  9.28666300E+00  0.467941
  1 S  3.16392700E+00  0.362312
 
  2 S  7.86827240E+00 -0.119332
  2 S  1.88128850E+00 -0.160854
  2 S  5.44249300E-01  1.143456
 
  3 P  7.86827240E+00  0.068999
  3 P  1.88128850E+00  0.316424
  3 P  5.44249300E-01  0.744308
 
  4 S  1.68714400E-01  1.000000
 
  5 P  1.68714400E-01  1.000000
 
  6 S  4.38000000E-02  1.000000
 
  7 P  4.38000000E-02  1.000000
 
  8 D  8.00000000E-01  1.000000
 
  H (Hydrogen)
  ------------
            Exponent  Coefficients 
       -------------- ---------------------------------------------------------
  1 S  1.87311370E+01  0.033495
  1 S  2.82539370E+00  0.234727
  1 S  6.40121700E-01  0.813757
 
  2 S  1.61277800E-01  1.000000
 


 Summary of "ao basis" -> "ao basis" (cartesian)
 ------------------------------------------------------------------------------
       Tag                 Description            Shells   Functions and Types
 ---------------- ------------------------------  ------  ---------------------
 N                          6-31+G*                  8       19   4s3p1d
 C                          6-31+G*                  8       19   4s3p1d
 H                          6-31+G*                  2        2   2s




 Summary of "ao basis" -> "ao basis" (cartesian)
 ------------------------------------------------------------------------------
       Tag                 Description            Shells   Functions and Types
 ---------------- ------------------------------  ------  ---------------------
 N                          6-31+G*                  8       19   4s3p1d
 C                          6-31+G*                  8       19   4s3p1d
 H                          6-31+G*                  2        2   2s


 
 solvent parameters
 solvname_short: methanol
 solvname_long:  methanol                           
 dielec:       32.6130
 dielecinf:     1.7657
 nonaqueous SMD model solvent descriptors
 dielec:       32.6130
 sola:          0.4300
 solb:          0.4700
 solc:          0.0000
 solg:         31.7700
 solh:          0.0000
 soln:          1.3288

          ---------------
          -cosmo- solvent
          ---------------
 Cosmo: York-Karplus, doi: 10.1021/jp992097l
 dielectric constant -eps-     =  32.61
 screen = (eps-1)/(eps    )    =   0.96934
 surface charge correction     = lagrangian
 -lineq- algorithm             =   0
 -bem- low  level              =   3
 -bem- from -octahedral-
 gaussian surface charge width =   0.98000
 degree of switching           =   1.00000
 switching function tolerance  =   0.00010
 atomic radii = 
 --------------
    1  7.000  1.890
    2  7.000  1.890
    3  6.000  1.850
    4  6.000  1.850
    5  6.000  1.850
    6  6.000  1.850
    7  6.000  1.850
    8  6.000  1.850
    9  6.000  1.850
   10  6.000  1.850
   11  6.000  1.850
   12  6.000  1.850
   13  6.000  1.850
   14  6.000  1.850
   15  6.000  1.850
   16  6.000  1.850
   17  6.000  1.850
   18  6.000  1.850
   19  6.000  1.850
   20  6.000  1.850
   21  6.000  1.850
   22  6.000  1.850
   23  6.000  1.850
   24  6.000  1.850
   25  6.000  1.850
   26  1.000  1.200
   27  1.000  1.200
   28  1.000  1.200
   29  1.000  1.200
   30  1.000  1.200
   31  1.000  1.200
   32  1.000  1.200
   33  1.000  1.200
   34  1.000  1.200
   35  1.000  1.200
   36  1.000  1.200
   37  1.000  1.200
   38  1.000  1.200
   39  1.000  1.200
   40  1.000  1.200
   41  1.000  1.200
   42  1.000  1.200
   43  1.000  1.200
   44  1.000  1.200
   45  1.000  1.200
   46  1.000  1.200
   47  1.000  1.200
   48  1.000  1.200

 solvent accessible surface
 --------------------------

 ---------- ATOMIC COORDINATES (A.U.) ------------ VDWR(ANG.) --
     1    0.68502601    4.11185257   -0.72518945     1.890
     2    1.54991475   -4.53148535    0.15165490     1.890
     3    0.99920445    2.59214680    1.26350085     1.850
     4    0.61484232   -2.05812486    0.50081242     1.850
     5   -0.23127396    6.47631351   -0.51499652     1.850
     6   -0.14066718   -6.61928766   -0.18689153     1.850
     7    2.00765144    0.03593889    0.90302628     1.850
     8    1.38122158    3.12545753   -3.23695353     1.850
     9    4.25064117   -5.15759915    0.11276691     1.850
    10   -0.89064220    7.39839305    1.90156892     1.850
    11   -2.77973569   -6.18003588   -0.22673397     1.850
    12    0.39024394    3.38162026    3.67379954     1.850
    13   -2.12475434   -1.69618691    0.42612230     1.850
    14   -0.56399627    5.80898795    3.99465773     1.850
    15   -3.74137530   -3.60760056    0.08309497     1.850
    16   -0.52711927    7.99888220   -2.65447708     1.850
    17    0.67461301   -9.13651891   -0.48493716     1.850
    18   -1.84557998    9.86421835    2.11413896     1.850
    19   -4.49665930   -8.17358799   -0.55718750     1.850
    20    4.12246226    3.68880940   -3.85652943     1.850
    21    5.13327808   -6.15021399    2.64830015     1.850
    22   -1.47826603   10.44311518   -2.40716905     1.850
    23   -1.04586857  -11.11664533   -0.81255598     1.850
    24   -2.13553955   11.37354955   -0.03076926     1.850
    25   -3.62666627  -10.63643515   -0.84990308     1.850
    26    4.05398881   -0.04463489    1.01409094     1.200
    27    1.05462517    1.09084762   -3.34665095     1.200
    28    0.08648514    3.82035776   -4.68659415     1.200
    29    4.71772291   -6.47525862   -1.41712621     1.200
    30    5.38783199   -3.49407597   -0.36356484     1.200
    31    0.63897239    2.16312775    5.30629996     1.200
    32   -2.95905105    0.16500686    0.63575275     1.200
    33   -1.05026935    6.45201586    5.88495284     1.200
    34   -5.76362045   -3.27961301    0.03111693     1.200
    35   -0.00607963    7.45073143   -4.55571799     1.200
    36    2.65540192   -9.66765500   -0.47894267     1.200
    37   -2.36961725   10.62842042    3.94891753     1.200
    38   -6.52169145   -7.82360211   -0.58736056     1.200
    39    5.40760814    2.84754098   -2.47318131     1.200
    40    4.60368108    2.92942595   -5.71908235     1.200
    41    4.48690825    5.72397995   -3.88358793     1.200
    42    7.15164696   -6.59835031    2.57302516     1.200
    43    4.85884802   -4.72664394    4.12643728     1.200
    44    4.13104774   -7.85474121    3.24650511     1.200
    45   -1.69542553   11.63319497   -4.06578065     1.200
    46   -0.35868616  -13.03811095   -1.03926624     1.200
    47   -2.87271411   13.28069967    0.15314878     1.200
    48   -4.95828493  -12.17641157   -1.10475931     1.200
 number of segments per atom =        128
 number of   points per atom =        128
 atom (   nspa,  nppa )
 ----------------------
    1 (     21,     0 )       0
    2 (     26,     0 )       0
    3 (     17,     0 )       0
    4 (     22,     0 )       0
    5 (     23,     0 )       0
    6 (     24,     0 )       0
    7 (     29,     0 )       0
    8 (     28,     0 )       0
    9 (     27,     0 )       0
   10 (     24,     0 )       0
   11 (     26,     0 )       0
   12 (     45,     0 )       0
   13 (     40,     0 )       0
   14 (     45,     0 )       0
   15 (     46,     0 )       0
   16 (     37,     0 )       0
   17 (     38,     0 )       0
   18 (     44,     0 )       0
   19 (     46,     0 )       0
   20 (     54,     0 )       0
   21 (     55,     0 )       0
   22 (     47,     0 )       0
   23 (     46,     0 )       0
   24 (     47,     0 )       0
   25 (     50,     0 )       0
   26 (     49,     0 )       0
   27 (     42,     0 )       0
   28 (     44,     0 )       0
   29 (     49,     0 )       0
   30 (     49,     0 )       0
   31 (     54,     0 )       0
   32 (     49,     0 )       0
   33 (     55,     0 )       0
   34 (     52,     0 )       0
   35 (     45,     0 )       0
   36 (     45,     0 )       0
   37 (     55,     0 )       0
   38 (     53,     0 )       0
   39 (     54,     0 )       0
   40 (     56,     0 )       0
   41 (     53,     0 )       0
   42 (     52,     0 )       0
   43 (     54,     0 )       0
   44 (     49,     0 )       0
   45 (     54,     0 )       0
   46 (     54,     0 )       0
   47 (     54,     0 )       0
   48 (     52,     0 )       0
 number of -cosmo- surface points =     2080
 molecular surface =    370.677 angstrom**2
 molecular volume  =    199.698 angstrom**3
 ...... end of -cosmo- initialization ......


 G(SMD-CDS) energy (kcal/mol)  =    -2.953
 SMD-CDS SASA (angstrom**2)    =   425.054

  Caching 1-el integrals 
 
            General Information
            -------------------
          SCF calculation type: DFT
          Wavefunction type:  closed shell.
          No. of atoms     :    48
          No. of electrons :   174
           Alpha electrons :    87
            Beta electrons :    87
          Charge           :     1
          Spin multiplicity:     1
          Use of symmetry is: off; symmetry adaption is: off
          Maximum number of iterations: 200
          AO basis - number of functions:   521
                     number of shells:   246
          Convergence on energy requested:  1.00D-06
          Convergence on density requested:  1.00D-05
          Convergence on gradient requested:  5.00D-04
 
              XC Information
              --------------
                         B3LYP Method XC Potential
                     Hartree-Fock (Exact) Exchange  0.200          
                        Slater Exchange Functional  0.800 local    
                    Becke 1988 Exchange Functional  0.720 non-local
              Lee-Yang-Parr Correlation Functional  0.810          
                  VWN I RPA Correlation Functional  0.190 local    
 
             Grid Information
             ----------------
          Grid used for XC integration:  medium    
          Radial quadrature: Mura-Knowles        
          Angular quadrature: Lebedev. 
          Tag              B.-S. Rad. Rad. Pts. Rad. Cut. Ang. Pts.
          ---              ---------- --------- --------- ---------
          N                   0.65       49          21.0       434
          C                   0.70       49          26.0       434
          H                   0.35       45          23.0       434
          Grid pruning is: on 
          Number of quadrature shells:  2260
          Spatial weights used:  Erf1
 
          Convergence Information
          -----------------------
          Convergence aids based upon iterative change in 
          total energy or number of iterations. 
          Levelshifting, if invoked, occurs when the 
          HOMO/LUMO gap drops below (HL_TOL):  1.00D-02
          DIIS, if invoked, will attempt to extrapolate 
          using up to (NFOCK): 10 stored Fock matrices.

                    Damping( 0%)  Levelshifting(0.5)       DIIS
                  --------------- ------------------- ---------------
          dE  on:    start            ASAP                start   
          dE off:    2 iters        200 iters           200 iters 

 
      Screening Tolerance Information
      -------------------------------
          Density screening/tol_rho:  1.00D-10
          AO Gaussian exp screening on grid/accAOfunc:  14
          CD Gaussian exp screening on grid/accCDfunc:  20
          XC Gaussian exp screening on grid/accXCfunc:  20
          Schwarz screening/accCoul:  1.00D-08

 
 WARNING : Found    14 linear dependencies 
 S eigenvalue threshold:     1.00000E-05
 Smallest S eigenvalue :     1.38774E-07
 Largest  S eigenvalue :     6.98205E-06
 

 !! The overlap matrix has  14 vectors deemed linearly dependent with
    eigenvalues:
 1.39D-07 2.21D-07 5.43D-07 6.44D-07 7.87D-07 9.07D-07 1.24D-06 1.53D-06
 2.27D-06 2.73D-06 2.94D-06 5.13D-06 5.93D-06 6.98D-06
 

 Loading old vectors from job with title :

Dye01 molecule UV/Vis in methanol

   Time after variat. SCF:      1.2
   Time prior to 1st pass:      1.2

 Integral file          = /scratch.global/lever046/nwchem/nwc_dy01_b3lyp_meth_uvv.aoints.00
 Record size in doubles =    65536    No. of integs per rec  =    32766
 Max. records in memory =        0    Max. records in file   = 26824047
 No. of bits per label  =       16    No. of bits per value  =       64


 #quartets = 3.000D+08 #integrals = 5.456D+09 #direct =  0.0% #cached =100.0%


File balance: exchanges=    39  moved=  5641  time=   3.3


 Grid_pts file          = /scratch.global/lever046/nwchem/nwc_dy01_b3lyp_meth_uvv.gridpts.00
 Record size in doubles =  12289        No. of grid_pts per rec  =   3070
 Max. records in memory =     23        Max. recs in file   = 142999628

 Grid integrated density:     174.000772565018
 Requested integration accuracy:   0.10E-05

           Memory utilization after 1st SCF pass: 
           Heap Space remaining (MW):       12.76            12761116
          Stack Space remaining (MW):       13.10            13101860

   convergence    iter        energy       DeltaE   RMS-Dens  Diis-err    time
 ---------------- ----- ----------------- --------- --------- ---------  ------
     COSMO gas phase
 d= 0,ls=0.0,diis     1   -995.8074208468 -3.06D+03  3.82D+02  3.28D+00    67.8
 d= 0,ls=0.0,diis     2   -998.8370244615 -3.03D+00  1.77D-02  4.36D+00    84.9
 d= 0,ls=0.0,diis     3   -999.4911605491 -6.54D-01  7.04D-03  7.44D-01   102.6
 d= 0,ls=0.0,diis     4   -999.5199105353 -2.87D-02  3.66D-03  5.99D-01   120.2
 d= 0,ls=0.0,diis     5   -999.6031137018 -8.32D-02  8.39D-04  3.11D-02   138.7
 d= 0,ls=0.0,diis     6   -999.6058995110 -2.79D-03  3.54D-04  1.05D-02   156.0
 d= 0,ls=0.0,diis     7   -999.6072114244 -1.31D-03  8.76D-05  5.85D-04   173.7
 d= 0,ls=0.0,diis     8   -999.6072807109 -6.93D-05  3.44D-05  6.30D-05   191.6
 d= 0,ls=0.0,diis     9   -999.6072882420 -7.53D-06  1.15D-05  7.57D-06   209.2
 d= 0,ls=0.0,diis    10   -999.6072892038 -9.62D-07  4.82D-06  7.23D-07   226.8

           Memory utilization after 1st SCF pass: 
           Heap Space remaining (MW):       12.76            12761116
          Stack Space remaining (MW):       13.10            13101860

   convergence    iter        energy       DeltaE   RMS-Dens  Diis-err    time
 ---------------- ----- ----------------- --------- --------- ---------  ------
     COSMO solvation phase
 d= 0,ls=0.0,diis     1   -999.6825420302 -7.53D-02  3.18D-03  9.25D-03   271.0
 d= 0,ls=0.0,diis     2   -999.6848736569 -2.33D-03  5.75D-04  1.15D-02   315.7
 d= 0,ls=0.0,diis     3   -999.6863641654 -1.49D-03  2.19D-04  1.12D-03   359.8
 d= 0,ls=0.0,diis     4   -999.6864737817 -1.10D-04  7.28D-05  4.31D-04   404.3
 d= 0,ls=0.0,diis     5   -999.6865266442 -5.29D-05  3.04D-05  2.96D-05   449.5
 d= 0,ls=0.0,diis     6   -999.6865291001 -2.46D-06  8.92D-06  6.07D-06   494.1
 d= 0,ls=0.0,diis     7   -999.6865292354 -1.35D-07  2.51D-06  4.05D-07   537.8


         Total DFT energy =     -999.686529235400
      One electron energy =    -5401.865182081661
           Coulomb energy =     2508.015553645739
    Exchange-Corr. energy =     -147.005401420657
 Nuclear repulsion energy =     2059.720279571012

             COSMO energy =      -18.551778949833

 Numeric. integr. density =      173.999989754254

     Total iterative time =    536.7s


                                COSMO-SMD solvation results
                                ---------------------------
 Reference for the SMD model:
 Marenich, A. V.; Cramer, C. J.; Truhlar, D. G. J. Phys. Chem. B 2009, 113, 6378

             internal energy in gas <Psi(g)|H|Psi(g)> =      -999.607289203833
         internal energy in solvent <Psi(s)|H|Psi(s)> =      -999.601341284991
                               delta internal energy  =         0.005947918842 (    3.73 kcal/mol)
   total free energy in solvent <Psi(s)|H+V/2|Psi(s)> =      -999.681823410554
 polarization energy contribution <Psi(s)|V/2|Psi(s)> =        -0.080482125563 (  -50.50 kcal/mol)
    total free energy in solvent including G(SMD-CDS) =      -999.686529235400
                       G(SMD-CDS) energy contribution =        -0.004705824846 (   -2.95 kcal/mol)
     1 M fixed-concentration free energy of solvation =        -0.079240031567 (  -49.72 kcal/mol)
 
                       DFT Final Molecular Orbital Analysis
                       ------------------------------------
 
 Vector    1  Occ=2.000000D+00  E=-1.445281D+01
              MO Center=  3.6D-01,  2.2D+00, -3.8D-01, r^2= 2.0D-02
   Bfn.  Coefficient  Atom+Function         Bfn.  Coefficient  Atom+Function  
  ----- ------------  ---------------      ----- ------------  ---------------
     1      0.992632   1 N  s                 2      0.035208   1 N  s         
 
 Vector    2  Occ=2.000000D+00  E=-1.440022D+01
              MO Center=  8.2D-01, -2.4D+00,  8.0D-02, r^2= 2.0D-02
   Bfn.  Coefficient  Atom+Function         Bfn.  Coefficient  Atom+Function  
  ----- ------------  ---------------      ----- ------------  ---------------
    20      0.992707   2 N  s                21      0.035033   2 N  s         
 
 Vector    3  Occ=2.000000D+00  E=-1.028880D+01
              MO Center=  5.3D-01,  1.4D+00,  6.7D-01, r^2= 2.8D-02
   Bfn.  Coefficient  Atom+Function         Bfn.  Coefficient  Atom+Function  
  ----- ------------  ---------------      ----- ------------  ---------------
    39      0.993192   3 C  s                40      0.051190   3 C  s         
    10      0.029134   1 N  s                44     -0.026172   3 C  s         
 
 Vector    4  Occ=2.000000D+00  E=-1.027684D+01
              MO Center= -1.2D-01,  3.4D+00, -2.7D-01, r^2= 2.8D-02
   Bfn.  Coefficient  Atom+Function         Bfn.  Coefficient  Atom+Function  
  ----- ------------  ---------------      ----- ------------  ---------------
    77      0.993152   5 C  s                78      0.051623   5 C  s         
    10      0.029586   1 N  s                82     -0.028941   5 C  s         
 
 Vector    5  Occ=2.000000D+00  E=-1.026242D+01
              MO Center=  3.3D-01, -1.1D+00,  2.7D-01, r^2= 2.8D-02
   Bfn.  Coefficient  Atom+Function         Bfn.  Coefficient  Atom+Function  
  ----- ------------  ---------------      ----- ------------  ---------------
    58      0.993206   4 C  s                59      0.050714   4 C  s         
    63     -0.025871   4 C  s         
 
 Vector    6  Occ=2.000000D+00  E=-1.025822D+01
              MO Center= -7.4D-02, -3.5D+00, -9.9D-02, r^2= 2.8D-02
   Bfn.  Coefficient  Atom+Function         Bfn.  Coefficient  Atom+Function  
  ----- ------------  ---------------      ----- ------------  ---------------
    96      0.993219   6 C  s                97      0.050817   6 C  s         
   101     -0.028694   6 C  s         
 
 Vector    7  Occ=2.000000D+00  E=-1.024532D+01
              MO Center= -3.0D-01,  3.1D+00,  2.1D+00, r^2= 3.4D-02
   Bfn.  Coefficient  Atom+Function         Bfn.  Coefficient  Atom+Function  
  ----- ------------  ---------------      ----- ------------  ---------------
   248      0.991475  14 C  s               172      0.052230  10 C  s         
   249      0.050632  14 C  s               253     -0.025429  14 C  s         
 
 Vector    8  Occ=2.000000D+00  E=-1.024213D+01
              MO Center=  7.3D-01,  1.7D+00, -1.7D+00, r^2= 2.8D-02
   Bfn.  Coefficient  Atom+Function         Bfn.  Coefficient  Atom+Function  
  ----- ------------  ---------------      ----- ------------  ---------------
   134      0.993283   8 C  s               135      0.051291   8 C  s         
   143     -0.036005   8 C  s                10      0.026534   1 N  s         
   139     -0.026567   8 C  s               257     -0.026414  14 C  s         
 
 Vector    9  Occ=2.000000D+00  E=-1.024022D+01
              MO Center= -4.7D-01,  3.9D+00,  1.0D+00, r^2= 3.4D-02
   Bfn.  Coefficient  Atom+Function         Bfn.  Coefficient  Atom+Function  
  ----- ------------  ---------------      ----- ------------  ---------------
   172      0.991458  10 C  s               248     -0.052494  14 C  s         
   173      0.051060  10 C  s               177     -0.026991  10 C  s         
 
 Vector   10  Occ=2.000000D+00  E=-1.023117D+01
              MO Center=  2.2D+00, -2.7D+00,  6.0D-02, r^2= 2.8D-02
   Bfn.  Coefficient  Atom+Function         Bfn.  Coefficient  Atom+Function  
  ----- ------------  ---------------      ----- ------------  ---------------
   153      0.993276   9 C  s               154      0.050996   9 C  s         
   162     -0.035837   9 C  s               158     -0.025734   9 C  s         
   390      0.025586  21 C  s         
 
 Vector   11  Occ=2.000000D+00  E=-1.022822D+01
              MO Center=  2.1D-01,  1.8D+00,  1.9D+00, r^2= 2.8D-02
   Bfn.  Coefficient  Atom+Function         Bfn.  Coefficient  Atom+Function  
  ----- ------------  ---------------      ----- ------------  ---------------
   210      0.992869  12 C  s               211      0.051221  12 C  s         
   215     -0.026416  12 C  s         
 
 Vector   12  Occ=2.000000D+00  E=-1.022484D+01
              MO Center= -9.8D-01,  5.2D+00,  1.1D+00, r^2= 3.9D-02
   Bfn.  Coefficient  Atom+Function         Bfn.  Coefficient  Atom+Function  
  ----- ------------  ---------------      ----- ------------  ---------------
   324      0.991206  18 C  s               325      0.050437  18 C  s         
   438      0.047117  24 C  s               447     -0.031903  24 C  s         
   400      0.031151  22 C  s         
 
 Vector   13  Occ=2.000000D+00  E=-1.022442D+01
              MO Center= -7.8D-01,  5.5D+00, -1.3D+00, r^2= 6.7D-02
   Bfn.  Coefficient  Atom+Function         Bfn.  Coefficient  Atom+Function  
  ----- ------------  ---------------      ----- ------------  ---------------
   400      0.983883  22 C  s               286      0.120393  16 C  s         
   401      0.049911  22 C  s               438      0.047154  24 C  s         
   324     -0.033341  18 C  s         
 
 Vector   14  Occ=2.000000D+00  E=-1.022206D+01
              MO Center= -2.9D-01,  4.3D+00, -1.4D+00, r^2= 5.7D-02
   Bfn.  Coefficient  Atom+Function         Bfn.  Coefficient  Atom+Function  
  ----- ------------  ---------------      ----- ------------  ---------------
   286      0.985698  16 C  s               400     -0.120392  22 C  s         
   287      0.050815  16 C  s                86     -0.045031   5 C  s         
    88      0.044039   5 C  py               50      0.031205   3 C  py        
   291     -0.028655  16 C  s               184      0.026051  10 C  pz        
 
 Vector   15  Occ=2.000000D+00  E=-1.021877D+01
              MO Center= -1.1D+00,  6.0D+00, -1.7D-02, r^2= 3.7D-02
   Bfn.  Coefficient  Atom+Function         Bfn.  Coefficient  Atom+Function  
  ----- ------------  ---------------      ----- ------------  ---------------
   438      0.990659  24 C  s               439      0.050362  24 C  s         
   400     -0.049878  22 C  s               324     -0.045933  18 C  s         
   447      0.026249  24 C  s         
 
 Vector   16  Occ=2.000000D+00  E=-1.021634D+01
              MO Center= -1.5D+00, -3.3D+00, -1.2D-01, r^2= 3.3D-02
   Bfn.  Coefficient  Atom+Function         Bfn.  Coefficient  Atom+Function  
  ----- ------------  ---------------      ----- ------------  ---------------
   191      0.991831  11 C  s               192      0.050641  11 C  s         
   267      0.041081  15 C  s               196     -0.025150  11 C  s         
 
 Vector   17  Occ=2.000000D+00  E=-1.021218D+01
              MO Center= -2.0D+00, -1.9D+00,  4.8D-02, r^2= 7.1D-02
   Bfn.  Coefficient  Atom+Function         Bfn.  Coefficient  Atom+Function  
  ----- ------------  ---------------      ----- ------------  ---------------
   267      0.980951  15 C  s               229      0.148138  13 C  s         
   268      0.050094  15 C  s               191     -0.041179  11 C  s         
 
 Vector   18  Occ=2.000000D+00  E=-1.020926D+01
              MO Center= -1.1D+00, -9.2D-01,  2.2D-01, r^2= 6.7D-02
   Bfn.  Coefficient  Atom+Function         Bfn.  Coefficient  Atom+Function  
  ----- ------------  ---------------      ----- ------------  ---------------
   229      0.981896  13 C  s               267     -0.148601  15 C  s         
   230      0.050585  13 C  s               234     -0.026509  13 C  s         
 
 Vector   19  Occ=2.000000D+00  E=-1.020612D+01
              MO Center= -4.5D-01, -5.8D+00, -4.1D-01, r^2= 2.3D-01
   Bfn.  Coefficient  Atom+Function         Bfn.  Coefficient  Atom+Function  
  ----- ------------  ---------------      ----- ------------  ---------------
   419      0.933249  23 C  s               305      0.336254  17 C  s         
   420      0.047235  23 C  s               457      0.032402  25 C  s         
    69     -0.028380   4 C  py              343      0.025843  19 C  s         
 
 Vector   20  Occ=2.000000D+00  E=-1.020580D+01
              MO Center= -2.4D+00, -4.3D+00, -2.9D-01, r^2= 3.8D-02
   Bfn.  Coefficient  Atom+Function         Bfn.  Coefficient  Atom+Function  
  ----- ------------  ---------------      ----- ------------  ---------------
   343      0.991626  19 C  s               344      0.050526  19 C  s         
   457      0.033734  25 C  s               466     -0.030125  25 C  s         
   191     -0.025070  11 C  s         
 
 Vector   21  Occ=2.000000D+00  E=-1.020527D+01
              MO Center=  2.5D-01, -5.0D+00, -2.8D-01, r^2= 2.3D-01
   Bfn.  Coefficient  Atom+Function         Bfn.  Coefficient  Atom+Function  
  ----- ------------  ---------------      ----- ------------  ---------------
   305      0.934119  17 C  s               419     -0.336772  23 C  s         
   306      0.048060  17 C  s               428     -0.040236  23 C  s         
   202      0.034311  11 C  py               69     -0.033652   4 C  py        
   107     -0.033073   6 C  py              105     -0.030543   6 C  s         
   106     -0.029316   6 C  px              310     -0.028636  17 C  s         
 
 Vector   22  Occ=2.000000D+00  E=-1.019752D+01
              MO Center= -1.9D+00, -5.6D+00, -4.5D-01, r^2= 3.2D-02
   Bfn.  Coefficient  Atom+Function         Bfn.  Coefficient  Atom+Function  
  ----- ------------  ---------------      ----- ------------  ---------------
   457      0.991758  25 C  s               458      0.050490  25 C  s         
   343     -0.034820  19 C  s               419     -0.034260  23 C  s         
 
 Vector   23  Occ=2.000000D+00  E=-1.019203D+01
              MO Center=  2.2D+00,  2.0D+00, -2.0D+00, r^2= 2.8D-02
   Bfn.  Coefficient  Atom+Function         Bfn.  Coefficient  Atom+Function  
  ----- ------------  ---------------      ----- ------------  ---------------
   362      0.993081  20 C  s               363      0.051026  20 C  s         
 
 Vector   24  Occ=2.000000D+00  E=-1.019149D+01
              MO Center=  1.1D+00,  1.9D-02,  4.8D-01, r^2= 2.8D-02
   Bfn.  Coefficient  Atom+Function         Bfn.  Coefficient  Atom+Function  
  ----- ------------  ---------------      ----- ------------  ---------------
   115      0.993049   7 C  s               116      0.051561   7 C  s         
    69      0.029312   4 C  py              120     -0.026946   7 C  s         
 
 Vector   25  Occ=2.000000D+00  E=-1.018314D+01
              MO Center=  2.7D+00, -3.3D+00,  1.4D+00, r^2= 2.8D-02
   Bfn.  Coefficient  Atom+Function         Bfn.  Coefficient  Atom+Function  
  ----- ------------  ---------------      ----- ------------  ---------------
   381      0.993068  21 C  s               382      0.050963  21 C  s         
 
 Vector   26  Occ=2.000000D+00  E=-1.054189D+00
              MO Center=  3.2D-01,  2.2D+00, -2.1D-01, r^2= 1.2D+00
   Bfn.  Coefficient  Atom+Function         Bfn.  Coefficient  Atom+Function  
  ----- ------------  ---------------      ----- ------------  ---------------
     6      0.460615   1 N  s                 2      0.362104   1 N  s         
    10     -0.339818   1 N  s                51     -0.213111   3 C  pz        
     1     -0.180839   1 N  s               219      0.174199  12 C  s         
    40      0.164743   3 C  s                78      0.161391   5 C  s         
    86      0.148123   5 C  s               257      0.139031  14 C  s         
 
 Vector   27  Occ=2.000000D+00  E=-9.831005D-01
              MO Center=  6.3D-01, -2.4D+00,  8.5D-02, r^2= 1.5D+00
   Bfn.  Coefficient  Atom+Function         Bfn.  Coefficient  Atom+Function  
  ----- ------------  ---------------      ----- ------------  ---------------
    25      0.448200   2 N  s                21      0.343771   2 N  s         
    29     -0.263262   2 N  s                20     -0.172141   2 N  s         
    59      0.160328   4 C  s                97      0.156738   6 C  s         
   390     -0.140870  21 C  s               162      0.118879   9 C  s         
   154      0.112441   9 C  s               276      0.111840  15 C  s         
 
 Vector   28  Occ=2.000000D+00  E=-8.983618D-01
              MO Center= -4.2D-01,  4.0D+00,  1.8D-01, r^2= 3.6D+00
   Bfn.  Coefficient  Atom+Function         Bfn.  Coefficient  Atom+Function  
  ----- ------------  ---------------      ----- ------------  ---------------
    88      0.246226   5 C  py              173     -0.221841  10 C  s         
    78     -0.163505   5 C  s                86     -0.162768   5 C  s         
   325     -0.163215  18 C  s                51     -0.161261   3 C  pz        
   287     -0.137230  16 C  s               439     -0.135042  24 C  s         
   177     -0.131974  10 C  s               401     -0.132304  22 C  s         
 
 Vector   29  Occ=2.000000D+00  E=-8.725680D-01
              MO Center= -6.8D-01, -2.9D+00, -8.3D-03, r^2= 9.7D+00
   Bfn.  Coefficient  Atom+Function         Bfn.  Coefficient  Atom+Function  
  ----- ------------  ---------------      ----- ------------  ---------------
   192      0.177686  11 C  s               428      0.163875  23 C  s         
   344      0.154969  19 C  s               458      0.140041  25 C  s         
    97      0.139298   6 C  s               420      0.137581  23 C  s         
   306      0.134709  17 C  s               107      0.122745   6 C  py        
   106      0.120537   6 C  px              310      0.109973  17 C  s         
 
 Vector   30  Occ=2.000000D+00  E=-8.679635D-01
              MO Center= -8.3D-02,  8.4D-01,  5.2D-01, r^2= 1.1D+01
   Bfn.  Coefficient  Atom+Function         Bfn.  Coefficient  Atom+Function  
  ----- ------------  ---------------      ----- ------------  ---------------
   211      0.195750  12 C  s                40      0.170026   3 C  s         
   249      0.161935  14 C  s               215      0.137664  12 C  s         
   253      0.127421  14 C  s                44      0.116258   3 C  s         
   447     -0.114498  24 C  s                 6     -0.113198   1 N  s         
    25     -0.110710   2 N  s               210     -0.102979  12 C  s         
 
 Vector   31  Occ=2.000000D+00  E=-8.413496D-01
              MO Center= -2.5D-01, -3.4D-01,  1.6D-01, r^2= 1.0D+01
   Bfn.  Coefficient  Atom+Function         Bfn.  Coefficient  Atom+Function  
  ----- ------------  ---------------      ----- ------------  ---------------
   230      0.197426  13 C  s                59      0.171290   4 C  s         
    69     -0.158705   4 C  py              268      0.157041  15 C  s         
   234      0.135760  13 C  s               272      0.126767  15 C  s         
   116      0.119164   7 C  s               120      0.118353   7 C  s         
    63      0.115640   4 C  s                25     -0.111701   2 N  s         
 
 Vector   32  Occ=2.000000D+00  E=-8.161811D-01
              MO Center= -4.8D-01,  1.0D+00, -3.7D-02, r^2= 1.7D+01
   Bfn.  Coefficient  Atom+Function         Bfn.  Coefficient  Atom+Function  
  ----- ------------  ---------------      ----- ------------  ---------------
   439      0.158294  24 C  s               401      0.150890  22 C  s         
   268     -0.143344  15 C  s                40      0.139727   3 C  s         
     4     -0.127198   1 N  py               78     -0.124953   5 C  s         
   443      0.119194  24 C  s               116      0.115148   7 C  s         
   405      0.113363  22 C  s               420      0.108403  23 C  s         
 
 Vector   33  Occ=2.000000D+00  E=-7.922517D-01
              MO Center=  4.5D-01,  2.7D+00, -7.4D-01, r^2= 6.8D+00
   Bfn.  Coefficient  Atom+Function         Bfn.  Coefficient  Atom+Function  
  ----- ------------  ---------------      ----- ------------  ---------------
   135      0.230649   8 C  s               139      0.194992   8 C  s         
   363      0.183515  20 C  s               367      0.164046  20 C  s         
   325      0.146342  18 C  s               287     -0.133031  16 C  s         
    78     -0.127662   5 C  s               447      0.121132  24 C  s         
   134     -0.118518   8 C  s                 5     -0.111666   1 N  pz        
 
 Vector   34  Occ=2.000000D+00  E=-7.841969D-01
              MO Center= -4.3D-01, -8.5D-01, -7.7D-02, r^2= 1.7D+01
   Bfn.  Coefficient  Atom+Function         Bfn.  Coefficient  Atom+Function  
  ----- ------------  ---------------      ----- ------------  ---------------
    59      0.174903   4 C  s               458      0.153214  25 C  s         
   420      0.150421  23 C  s                97     -0.129040   6 C  s         
   462      0.123414  25 C  s               192     -0.119058  11 C  s         
   439     -0.118207  24 C  s                63      0.115163   4 C  s         
   401     -0.111694  22 C  s               116      0.108464   7 C  s         
 
 Vector   35  Occ=2.000000D+00  E=-7.713191D-01
              MO Center=  1.9D-02,  3.3D+00, -8.7D-02, r^2= 7.3D+00
   Bfn.  Coefficient  Atom+Function         Bfn.  Coefficient  Atom+Function  
  ----- ------------  ---------------      ----- ------------  ---------------
   287      0.189131  16 C  s               325     -0.185880  18 C  s         
   211      0.171879  12 C  s               291      0.163352  16 C  s         
   329     -0.155045  18 C  s                 6     -0.153981   1 N  s         
   363      0.132318  20 C  s               215      0.131399  12 C  s         
    86      0.125662   5 C  s               367      0.120320  20 C  s         
 
 Vector   36  Occ=2.000000D+00  E=-7.709879D-01
              MO Center=  9.4D-01, -3.2D+00,  3.2D-01, r^2= 6.3D+00
   Bfn.  Coefficient  Atom+Function         Bfn.  Coefficient  Atom+Function  
  ----- ------------  ---------------      ----- ------------  ---------------
   154      0.224888   9 C  s               382      0.208709  21 C  s         
   158      0.189250   9 C  s               386      0.190122  21 C  s         
    97     -0.146161   6 C  s               344      0.141288  19 C  s         
   466      0.139269  25 C  s                22      0.127613   2 N  px        
   306     -0.125506  17 C  s               101     -0.115729   6 C  s         
 
 Vector   37  Occ=2.000000D+00  E=-7.522926D-01
              MO Center= -3.7D-01, -3.6D+00,  1.6D-02, r^2= 6.7D+00
   Bfn.  Coefficient  Atom+Function         Bfn.  Coefficient  Atom+Function  
  ----- ------------  ---------------      ----- ------------  ---------------
   306      0.204002  17 C  s               344     -0.200898  19 C  s         
   310      0.182135  17 C  s                25     -0.168389   2 N  s         
   348     -0.168896  19 C  s               230      0.153892  13 C  s         
   382      0.128473  21 C  s               428      0.119066  23 C  s         
   234      0.117660  13 C  s               386      0.117612  21 C  s         
 
 Vector   38  Occ=2.000000D+00  E=-7.320120D-01
              MO Center= -3.0D-01, -6.9D-01,  1.4D-01, r^2= 1.6D+01
   Bfn.  Coefficient  Atom+Function         Bfn.  Coefficient  Atom+Function  
  ----- ------------  ---------------      ----- ------------  ---------------
   116      0.184428   7 C  s               120      0.160640   7 C  s         
[...]
    22   -1.47826603   10.44311518   -2.40716905     1.850
    23   -1.04586857  -11.11664533   -0.81255598     1.850
    24   -2.13553955   11.37354955   -0.03076926     1.850
    25   -3.62666627  -10.63643515   -0.84990308     1.850
    26    4.05398881   -0.04463489    1.01409094     1.200
    27    1.05462517    1.09084762   -3.34665095     1.200
    28    0.08648514    3.82035776   -4.68659415     1.200
    29    4.71772291   -6.47525862   -1.41712621     1.200
    30    5.38783199   -3.49407597   -0.36356484     1.200
    31    0.63897239    2.16312775    5.30629996     1.200
    32   -2.95905105    0.16500686    0.63575275     1.200
    33   -1.05026935    6.45201586    5.88495284     1.200
    34   -5.76362045   -3.27961301    0.03111693     1.200
    35   -0.00607963    7.45073143   -4.55571799     1.200
    36    2.65540192   -9.66765500   -0.47894267     1.200
    37   -2.36961725   10.62842042    3.94891753     1.200
    38   -6.52169145   -7.82360211   -0.58736056     1.200
    39    5.40760814    2.84754098   -2.47318131     1.200
    40    4.60368108    2.92942595   -5.71908235     1.200
    41    4.48690825    5.72397995   -3.88358793     1.200
    42    7.15164696   -6.59835031    2.57302516     1.200
    43    4.85884802   -4.72664394    4.12643728     1.200
    44    4.13104774   -7.85474121    3.24650511     1.200
    45   -1.69542553   11.63319497   -4.06578065     1.200
    46   -0.35868616  -13.03811095   -1.03926624     1.200
    47   -2.87271411   13.28069967    0.15314878     1.200
    48   -4.95828493  -12.17641157   -1.10475931     1.200
 number of segments per atom =        128
 number of   points per atom =        128
 atom (   nspa,  nppa )
 ----------------------
    1 (     21,     0 )       0
    2 (     26,     0 )       0
    3 (     17,     0 )       0
    4 (     22,     0 )       0
    5 (     23,     0 )       0
    6 (     24,     0 )       0
    7 (     29,     0 )       0
    8 (     28,     0 )       0
    9 (     27,     0 )       0
   10 (     24,     0 )       0
   11 (     26,     0 )       0
   12 (     45,     0 )       0
   13 (     40,     0 )       0
   14 (     45,     0 )       0
   15 (     46,     0 )       0
   16 (     37,     0 )       0
   17 (     38,     0 )       0
   18 (     44,     0 )       0
   19 (     46,     0 )       0
   20 (     54,     0 )       0
   21 (     55,     0 )       0
   22 (     47,     0 )       0
   23 (     46,     0 )       0
   24 (     47,     0 )       0
   25 (     50,     0 )       0
   26 (     49,     0 )       0
   27 (     42,     0 )       0
   28 (     44,     0 )       0
   29 (     49,     0 )       0
   30 (     49,     0 )       0
   31 (     54,     0 )       0
   32 (     49,     0 )       0
   33 (     55,     0 )       0
   34 (     52,     0 )       0
   35 (     45,     0 )       0
   36 (     45,     0 )       0
   37 (     55,     0 )       0
   38 (     53,     0 )       0
   39 (     54,     0 )       0
   40 (     56,     0 )       0
   41 (     53,     0 )       0
   42 (     52,     0 )       0
   43 (     54,     0 )       0
   44 (     49,     0 )       0
   45 (     54,     0 )       0
   46 (     54,     0 )       0
   47 (     54,     0 )       0
   48 (     52,     0 )       0
 number of -cosmo- surface points =     2080
 molecular surface =    370.677 angstrom**2
 molecular volume  =    199.698 angstrom**3
 G(SMD-CDS) energy (kcal/mol)  =    -2.953
 SMD-CDS SASA (angstrom**2)    =   425.054

 
            Memory Information
            ------------------
          Available GA space size is         419158959 doubles
          Available MA space size is          26151780 doubles
          Length of a trial vector is        36540
          Algorithm : Incore multiple tensor contraction
          Max subspace size reduced from      6000 to     3253
          Estimated peak GA usage is         379488863 doubles
          Estimated peak MA usage is             51000 doubles
 
   10 smallest eigenvalue differences (eV) 
--------------------------------------------------------
  No. Spin  Occ  Vir  Irrep   E(Occ)    E(Vir)   E(Diff)
--------------------------------------------------------
    1    1   87   88 a        -0.202    -0.106     2.621
    2    1   87   89 a        -0.202    -0.060     3.859
    3    1   86   88 a        -0.252    -0.106     3.986
    4    1   87   90 a        -0.202    -0.050     4.137
    5    1   85   88 a        -0.266    -0.106     4.363
    6    1   87   91 a        -0.202    -0.026     4.794
    7    1   87   92 a        -0.202    -0.021     4.930
    8    1   84   88 a        -0.288    -0.106     4.961
    9    1   83   88 a        -0.290    -0.106     5.016
   10    1   86   89 a        -0.252    -0.060     5.224
--------------------------------------------------------

  Entering Davidson iterations
  Restricted singlet excited states

  Iter   NTrls   NConv    DeltaV     DeltaE      Time   
  ----  ------  ------  ---------  ---------  --------- 
    1     10       0     0.19E+00   0.10+100      119.7
    2     20       0     0.11E+00   0.39E-01      122.0
    3     30       0     0.46E-01   0.21E-01      122.1
    4     40       0     0.26E-01   0.65E-02      124.5
    5     50       2     0.20E-01   0.24E-02      122.6
    6     58       5     0.11E-01   0.12E-02      104.7
    7     63       7     0.50E-02   0.30E-03       88.7
    8     66       7     0.20E-02   0.45E-04       73.3
    9     69       9     0.63E-03   0.56E-05       73.2
   10     70       9     0.21E-03   0.76E-06       59.7
   11     71      10     0.69E-04   0.77E-07       59.9
  ----  ------  ------  ---------  ---------  --------- 
  Convergence criterion met
 
  Ground state a        -999.686529235400 a.u.
 
  ----------------------------------------------------------------------------
  Root   1 singlet a              0.071057898 a.u.                1.9336 eV 
  ----------------------------------------------------------------------------
     Transition Moments    X -0.01529   Y -0.33986   Z -0.02245
     Transition Moments   XX  0.15621  XY  0.39624  XZ  0.15365
     Transition Moments   YY  0.10960  YZ -0.06490  ZZ -0.25553
     Dipole Oscillator Strength                    0.0055067382
     Electric Quadrupole                           0.0000000005
     Magnetic Dipole                               0.0000000054
     Total Oscillator Strength                     0.0055067440
 
     Occ.   83  a   ---  Virt.   88  a        0.05179
     Occ.   87  a   ---  Virt.   88  a       -0.99327
     Occ.   87  a   ---  Virt.   91  a        0.05094
  ----------------------------------------------------------------------------
  Root   2 singlet a              0.123970815 a.u.                3.3734 eV 
  ----------------------------------------------------------------------------
     Transition Moments    X  0.04671   Y -1.07296   Z -0.09129
     Transition Moments   XX  0.28447  XY -0.22950  XZ  0.02349
     Transition Moments   YY  4.38046  YZ  0.46628  ZZ -0.47654
     Dipole Oscillator Strength                    0.0960165941
     Electric Quadrupole                           0.0000000720
     Magnetic Dipole                               0.0000006516
     Total Oscillator Strength                     0.0960173178
 
     Occ.   86  a   ---  Virt.   92  a       -0.05585
     Occ.   87  a   ---  Virt.   88  a       -0.06118
     Occ.   87  a   ---  Virt.   89  a        0.83024
     Occ.   87  a   ---  Virt.   90  a       -0.51250
     Occ.   87  a   ---  Virt.   92  a       -0.10068
     Occ.   87  a   ---  Virt.   93  a        0.07024
  ----------------------------------------------------------------------------
  Root   3 singlet a              0.130412893 a.u.                3.5487 eV 
  ----------------------------------------------------------------------------
     Transition Moments    X  0.03333   Y  0.22921   Z  0.04461
     Transition Moments   XX -0.19548  XY -0.46417  XZ -0.04141
     Transition Moments   YY -0.30832  YZ  0.06398  ZZ  0.17442
     Dipole Oscillator Strength                    0.0048373913
     Electric Quadrupole                           0.0000000034
     Magnetic Dipole                               0.0000000409
     Total Oscillator Strength                     0.0048374356
 
     Occ.   86  a   ---  Virt.   88  a       -0.99475
  ----------------------------------------------------------------------------
  Root   4 singlet a              0.131531896 a.u.                3.5792 eV 
  ----------------------------------------------------------------------------
     Transition Moments    X -0.11825   Y  1.16408   Z  0.06088
     Transition Moments   XX -0.16462  XY  0.76694  XZ -0.10744
     Transition Moments   YY -5.63327  YZ -0.42626  ZZ  0.33726
     Dipole Oscillator Strength                    0.1203752515
     Electric Quadrupole                           0.0000001424
     Magnetic Dipole                               0.0000008198
     Total Oscillator Strength                     0.1203762136
 
     Occ.   83  a   ---  Virt.   88  a       -0.05963
     Occ.   83  a   ---  Virt.   92  a       -0.05085
     Occ.   86  a   ---  Virt.   88  a        0.05901
     Occ.   86  a   ---  Virt.   89  a       -0.07440
     Occ.   86  a   ---  Virt.   92  a        0.08905
     Occ.   87  a   ---  Virt.   89  a       -0.46725
     Occ.   87  a   ---  Virt.   90  a       -0.83969
     Occ.   87  a   ---  Virt.   92  a        0.13142
     Occ.   87  a   ---  Virt.   93  a       -0.10073
  ----------------------------------------------------------------------------
  Root   5 singlet a              0.146205296 a.u.                3.9785 eV 
  ----------------------------------------------------------------------------
     Transition Moments    X  0.22232   Y -0.49145   Z -0.62697
     Transition Moments   XX  0.19566  XY  2.12520  XZ  0.21358
     Transition Moments   YY -4.95538  YZ -4.31594  ZZ -0.76304
     Dipole Oscillator Strength                    0.0666739727
     Electric Quadrupole                           0.0000005108
     Magnetic Dipole                               0.0000003471
     Total Oscillator Strength                     0.0666748306
 
     Occ.   81  a   ---  Virt.   88  a       -0.12208
     Occ.   81  a   ---  Virt.   91  a        0.07727
     Occ.   83  a   ---  Virt.   90  a        0.08651
     Occ.   84  a   ---  Virt.   89  a       -0.06259
     Occ.   84  a   ---  Virt.   90  a        0.12167
     Occ.   85  a   ---  Virt.   88  a        0.94926
     Occ.   85  a   ---  Virt.   91  a       -0.16118
  ----------------------------------------------------------------------------
  Root   6 singlet a              0.157090564 a.u.                4.2747 eV 
  ----------------------------------------------------------------------------
     Transition Moments    X -0.08059   Y  0.10713   Z  0.04860
     Transition Moments   XX -0.15447  XY -0.01205  XZ  0.14341
     Transition Moments   YY  0.49536  YZ  0.00111  ZZ -0.04881
     Dipole Oscillator Strength                    0.0021294991
     Electric Quadrupole                           0.0000000029
     Magnetic Dipole                               0.0000000102
     Total Oscillator Strength                     0.0021295122
 
     Occ.   83  a   ---  Virt.   88  a        0.12591
     Occ.   84  a   ---  Virt.   88  a       -0.15538
     Occ.   87  a   ---  Virt.   88  a        0.06179
     Occ.   87  a   ---  Virt.   91  a        0.97195
  ----------------------------------------------------------------------------
  Root   7 singlet a              0.159087658 a.u.                4.3290 eV 
  ----------------------------------------------------------------------------
     Transition Moments    X  0.20146   Y  0.98490   Z  0.02484
     Transition Moments   XX  0.12039  XY -2.21324  XZ  0.04932
     Transition Moments   YY -3.46485  YZ -1.31558  ZZ  0.24574
     Dipole Oscillator Strength                    0.1072501894
     Electric Quadrupole                           0.0000002374
     Magnetic Dipole                               0.0000011751
     Total Oscillator Strength                     0.1072516019
 
     Occ.   82  a   ---  Virt.   92  a       -0.05086
     Occ.   83  a   ---  Virt.   88  a       -0.07473
     Occ.   83  a   ---  Virt.   89  a       -0.05661
     Occ.   84  a   ---  Virt.   88  a       -0.17994
     Occ.   85  a   ---  Virt.   90  a        0.07869
     Occ.   86  a   ---  Virt.   89  a       -0.44578
     Occ.   86  a   ---  Virt.   90  a       -0.09757
     Occ.   86  a   ---  Virt.   92  a        0.15235
     Occ.   87  a   ---  Virt.   89  a       -0.05796
     Occ.   87  a   ---  Virt.   91  a       -0.05662
     Occ.   87  a   ---  Virt.   92  a       -0.82092
     Occ.   87  a   ---  Virt.   93  a       -0.14197
  ----------------------------------------------------------------------------
  Root   8 singlet a              0.163220215 a.u.                4.4414 eV 
  ----------------------------------------------------------------------------
     Transition Moments    X  0.08714   Y -0.92858   Z  0.17960
     Transition Moments   XX  0.82796  XY  1.74405  XZ -0.04421
     Transition Moments   YY -5.56181  YZ  1.63207  ZZ -0.22478
     Dipole Oscillator Strength                    0.0981623103
     Electric Quadrupole                           0.0000004039
     Magnetic Dipole                               0.0000001928
     Total Oscillator Strength                     0.0981629071
 
     Occ.   84  a   ---  Virt.   88  a        0.83347
     Occ.   85  a   ---  Virt.   89  a        0.22946
     Occ.   85  a   ---  Virt.   90  a       -0.38568
     Occ.   86  a   ---  Virt.   89  a       -0.11112
     Occ.   86  a   ---  Virt.   90  a       -0.07181
     Occ.   86  a   ---  Virt.   92  a        0.05783
     Occ.   87  a   ---  Virt.   91  a        0.15224
     Occ.   87  a   ---  Virt.   92  a       -0.12753
     Occ.   87  a   ---  Virt.   93  a       -0.15116
  ----------------------------------------------------------------------------
  Root   9 singlet a              0.165099726 a.u.                4.4926 eV 
  ----------------------------------------------------------------------------
     Transition Moments    X  0.02458   Y -0.48670   Z  0.10921
     Transition Moments   XX  0.61681  XY  1.09669  XZ -0.17458
     Transition Moments   YY -3.47059  YZ  1.11384  ZZ -0.03842
     Dipole Oscillator Strength                    0.0274516422
     Electric Quadrupole                           0.0000001748
     Magnetic Dipole                               0.0000000417
     Total Oscillator Strength                     0.0274518587
 
     Occ.   83  a   ---  Virt.   88  a        0.91583
     Occ.   84  a   ---  Virt.   88  a       -0.14881
     Occ.   85  a   ---  Virt.   89  a        0.15232
     Occ.   85  a   ---  Virt.   90  a       -0.25501
     Occ.   86  a   ---  Virt.   89  a       -0.06203
     Occ.   87  a   ---  Virt.   91  a       -0.13863
     Occ.   87  a   ---  Virt.   93  a       -0.08499
  ----------------------------------------------------------------------------
  Root  10 singlet a              0.173350433 a.u.                4.7171 eV 
  ----------------------------------------------------------------------------
     Transition Moments    X  0.05679   Y -0.21474   Z -0.07548
     Transition Moments   XX  1.24643  XY -0.72451  XZ -1.28178
     Transition Moments   YY -0.26076  YZ -0.25007  ZZ -0.19266
     Dipole Oscillator Strength                    0.0063604841
     Electric Quadrupole                           0.0000000820
     Magnetic Dipole                               0.0000001348
     Total Oscillator Strength                     0.0063607009
 
     Occ.   85  a   ---  Virt.   90  a        0.06893
     Occ.   86  a   ---  Virt.   89  a        0.11429
     Occ.   87  a   ---  Virt.   93  a       -0.58604
     Occ.   87  a   ---  Virt.   94  a       -0.74229
     Occ.   87  a   ---  Virt.   95  a       -0.20183
     Occ.   87  a   ---  Virt.   96  a       -0.08764
     Occ.   87  a   ---  Virt.   98  a       -0.09773
     Occ.   87  a   ---  Virt.   99  a        0.07595
 
              Target root =      1
          Target symmetry = none
      Ground state energy =   -999.686529235400
        Excitation energy =      0.071057897851
     Excited state energy =   -999.615471337550
 
  stored tddft:energy   -999.615471337550     

 Task  times  cpu:     1434.7s     wall:     1609.2s
 
 
                                NWChem Input Module
                                -------------------
 
 
 Summary of allocated global arrays
-----------------------------------
  No active global arrays



                         GA Statistics for process    0
                         ------------------------------

       create   destroy   get      put      acc     scatter   gather  read&inc
calls:  980      980     7.77e+06 4.20e+05 8.00e+06  314        0     1.61e+04 
number of processes/call 1.05e+00 1.40e+00 1.21e+00 0.00e+00 0.00e+00
bytes total:             2.00e+10 7.05e+08 2.85e+10 1.38e+05 0.00e+00 1.29e+05
bytes remote:            1.76e+10 2.02e+08 2.69e+10 0.00e+00 0.00e+00 0.00e+00
Max memory consumed for GA by this process: 129451512 bytes
 
MA_summarize_allocated_blocks: starting scan ...
MA_summarize_allocated_blocks: scan completed: 0 heap blocks, 0 stack blocks
MA usage statistics:

	allocation statistics:
					      heap	     stack
					      ----	     -----
	current number of blocks	         0	         0
	maximum number of blocks	        24	        51
	current total bytes		         0	         0
	maximum total bytes		   2768512	 120408872
	maximum total K-bytes		      2769	    120409
	maximum total M-bytes		         3	       121
 
 
                                     CITATION
                                     --------
                Please cite the following reference when publishing
                           results obtained with NWChem:
 
                 M. Valiev, E.J. Bylaska, N. Govind, K. Kowalski,
              T.P. Straatsma, H.J.J. van Dam, D. Wang, J. Nieplocha,
                        E. Apra, T.L. Windus, W.A. de Jong
                 "NWChem: a comprehensive and scalable open-source
                  solution for large scale molecular simulations"
                      Comput. Phys. Commun. 181, 1477 (2010)
                           doi:10.1016/j.cpc.2010.04.018
 
                                      AUTHORS
                                      -------
          E. Apra, E. J. Bylaska, W. A. de Jong, N. Govind, K. Kowalski,
       T. P. Straatsma, M. Valiev, H. J. J. van Dam, D. Wang, T. L. Windus,
        J. Hammond, J. Autschbach, K. Bhaskaran-Nair, J. Brabec, K. Lopata,
    S. A. Fischer, S. Krishnamoorthy, M. Jacquelin, W. Ma, M. Klemm, O. Villa,
      Y. Chen, V. Anisimov, F. Aquino, S. Hirata, M. T. Hackler, V. Konjkov,
            D. Mejia-Rodriguez, T. Risthaus, M. Malagoli, A. Marenich,
   A. Otero-de-la-Roza, J. Mullin, P. Nichols, R. Peverati, J. Pittner, Y. Zhao,
        P.-D. Fan, A. Fonari, M. J. Williamson, R. J. Harrison, J. R. Rehr,
      M. Dupuis, D. Silverstein, D. M. A. Smith, J. Nieplocha, V. Tipparaju,
    M. Krishnan, B. E. Van Kuiken, A. Vazquez-Mayagoitia, L. Jensen, M. Swart,
      Q. Wu, T. Van Voorhis, A. A. Auer, M. Nooijen, L. D. Crosby, E. Brown,
      G. Cisneros, G. I. Fann, H. Fruchtl, J. Garza, K. Hirao, R. A. Kendall,
      J. A. Nichols, K. Tsemekhman, K. Wolinski, J. Anchell, D. E. Bernholdt,
      P. Borowski, T. Clark, D. Clerc, H. Dachsel, M. J. O. Deegan, K. Dyall,
    D. Elwood, E. Glendening, M. Gutowski, A. C. Hess, J. Jaffe, B. G. Johnson,
     J. Ju, R. Kobayashi, R. Kutteh, Z. Lin, R. Littlefield, X. Long, B. Meng,
      T. Nakajima, S. Niu, L. Pollack, M. Rosing, K. Glaesemann, G. Sandrone,
      M. Stave, H. Taylor, G. Thomas, J. H. van Lenthe, A. T. Wong, Z. Zhang.

 Total times  cpu:     1434.9s     wall:     1609.8s
