
                                 *****************
                                 * O   R   C   A *
                                 *****************

                                            #,                                       
                                            ###                                      
                                            ####                                     
                                            #####                                    
                                            ######                                   
                                           ########,                                 
                                     ,,################,,,,,                         
                               ,,#################################,,                 
                          ,,##########################################,,             
                       ,#########################################, ''#####,          
                    ,#############################################,,   '####,        
                  ,##################################################,,,,####,       
                ,###########''''           ''''###############################       
              ,#####''   ,,,,##########,,,,          '''####'''          '####       
            ,##' ,,,,###########################,,,                        '##       
           ' ,,###''''                  '''############,,,                           
         ,,##''                                '''############,,,,        ,,,,,,###''
      ,#''                                            '''#######################'''  
     '                                                          ''''####''''         
             ,#######,   #######,   ,#######,      ##                                
            ,#'     '#,  ##    ##  ,#'     '#,    #''#        ######   ,####,        
            ##       ##  ##   ,#'  ##            #'  '#       #        #'  '#        
            ##       ##  #######   ##           ,######,      #####,   #    #        
            '#,     ,#'  ##    ##  '#,     ,#' ,#      #,         ##   #,  ,#        
             '#######'   ##     ##  '#######'  #'      '#     #####' # '####'        



                  #######################################################
                  #                        -***-                        #
                  #          Department of theory and spectroscopy      #
                  #    Directorship and core code : Frank Neese         #
                  #        Max Planck Institute fuer Kohlenforschung    #
                  #                Kaiser Wilhelm Platz 1               #
                  #                 D-45470 Muelheim/Ruhr               #
                  #                      Germany                        #
                  #                                                     #
                  #                  All rights reserved                #
                  #                        -***-                        #
                  #######################################################


                         Program Version 5.0.1 -  RELEASE  -


 With contributions from (in alphabetic order):
   Daniel Aravena         : Magnetic Suceptibility
   Michael Atanasov       : Ab Initio Ligand Field Theory (pilot matlab implementation)
   Alexander A. Auer      : GIAO ZORA, VPT2 properties, NMR spectrum
   Ute Becker             : Parallelization
   Giovanni Bistoni       : ED, misc. LED, open-shell LED, HFLD
   Martin Brehm           : Molecular dynamics
   Dmytro Bykov           : SCF Hessian
   Vijay G. Chilkuri      : MRCI spin determinant printing, contributions to CSF-ICE
   Dipayan Datta          : RHF DLPNO-CCSD density
   Achintya Kumar Dutta   : EOM-CC, STEOM-CC
   Dmitry Ganyushin       : Spin-Orbit,Spin-Spin,Magnetic field MRCI
   Miquel Garcia          : C-PCM and meta-GGA Hessian, CC/C-PCM, Gaussian charge scheme
   Yang Guo               : DLPNO-NEVPT2, F12-NEVPT2, CIM, IAO-localization
   Andreas Hansen         : Spin unrestricted coupled pair/coupled cluster methods
   Benjamin Helmich-Paris : MC-RPA, TRAH-SCF, COSX integrals
   Lee Huntington         : MR-EOM, pCC
   Robert Izsak           : Overlap fitted RIJCOSX, COSX-SCS-MP3, EOM
   Marcus Kettner         : VPT2
   Christian Kollmar      : KDIIS, OOCD, Brueckner-CCSD(T), CCSD density, CASPT2, CASPT2-K
   Simone Kossmann        : Meta GGA functionals, TD-DFT gradient, OOMP2, MP2 Hessian
   Martin Krupicka        : Initial AUTO-CI
   Lucas Lang             : DCDCAS
   Marvin Lechner         : AUTO-CI (C++ implementation), FIC-MRCC
   Dagmar Lenk            : GEPOL surface, SMD
   Dimitrios Liakos       : Extrapolation schemes; Compound Job, initial MDCI parallelization
   Dimitrios Manganas     : Further ROCIS development; embedding schemes
   Dimitrios Pantazis     : SARC Basis sets
   Anastasios Papadopoulos: AUTO-CI, single reference methods and gradients
   Taras Petrenko         : DFT Hessian,TD-DFT gradient, ASA, ECA, R-Raman, ABS, FL, XAS/XES, NRVS
   Peter Pinski           : DLPNO-MP2, DLPNO-MP2 Gradient
   Christoph Reimann      : Effective Core Potentials
   Marius Retegan         : Local ZFS, SOC
   Christoph Riplinger    : Optimizer, TS searches, QM/MM, DLPNO-CCSD(T), (RO)-DLPNO pert. Triples
   Tobias Risthaus        : Range-separated hybrids, TD-DFT gradient, RPA, STAB
   Michael Roemelt        : Original ROCIS implementation
   Masaaki Saitow         : Open-shell DLPNO-CCSD energy and density
   Barbara Sandhoefer     : DKH picture change effects
   Avijit Sen             : IP-ROCIS
   Kantharuban Sivalingam : CASSCF convergence, NEVPT2, FIC-MRCI
   Bernardo de Souza      : ESD, SOC TD-DFT
   Georgi Stoychev        : AutoAux, RI-MP2 NMR, DLPNO-MP2 response
   Willem Van den Heuvel  : Paramagnetic NMR
   Boris Wezisla          : Elementary symmetry handling
   Frank Wennmohs         : Technical directorship


 We gratefully acknowledge several colleagues who have allowed us to
 interface, adapt or use parts of their codes:
   Stefan Grimme, W. Hujo, H. Kruse, P. Pracht,  : VdW corrections, initial TS optimization,
                  C. Bannwarth, S. Ehlert          DFT functionals, gCP, sTDA/sTD-DF
   Ed Valeev, F. Pavosevic, A. Kumar             : LibInt (2-el integral package), F12 methods
   Garnet Chan, S. Sharma, J. Yang, R. Olivares  : DMRG
   Ulf Ekstrom                                   : XCFun DFT Library
   Mihaly Kallay                                 : mrcc  (arbitrary order and MRCC methods)
   Jiri Pittner, Ondrej Demel                    : Mk-CCSD
   Frank Weinhold                                : gennbo (NPA and NBO analysis)
   Christopher J. Cramer and Donald G. Truhlar   : smd solvation model
   Lars Goerigk                                  : TD-DFT with DH, B97 family of functionals
   V. Asgeirsson, H. Jonsson                     : NEB implementation
   FAccTs GmbH                                   : IRC, NEB, NEB-TS, DLPNO-Multilevel, CI-OPT
                                                   MM, QMMM, 2- and 3-layer-ONIOM, Crystal-QMMM,
                                                   LR-CPCM, SF, NACMEs, symmetry and pop. for TD-DFT,
                                                   nearIR, NL-DFT gradient (VV10), updates on ESD,
                                                   ML-optimized integration grids
   S Lehtola, MJT Oliveira, MAL Marques          : LibXC Library
   Liviu Ungur et al                             : ANISO software


 Your calculation uses the libint2 library for the computation of 2-el integrals
 For citations please refer to: http://libint.valeyev.net

 Your ORCA version has been built with support for libXC version: 5.1.0
 For citations please refer to: https://tddft.org/programs/libxc/

 This ORCA versions uses:
   CBLAS   interface :  Fast vector & matrix operations
   LAPACKE interface :  Fast linear algebra routines
   SCALAPACK package :  Parallel linear algebra routines
   Shared memory     :  Shared parallel matrices
   BLAS/LAPACK       :  OpenBLAS 0.3.15  USE64BITINT DYNAMIC_ARCH NO_AFFINITY Zen SINGLE_THREADED
        Core in use  :  Zen
   Copyright (c) 2011-2014, The OpenBLAS Project


================================================================================

----- Orbital basis set information -----
Your calculation utilizes the basis: 6-31+G*
   H-He, Li-Ne : W. J. Hehre, R. Ditchfield and J.A. Pople, J. Chem. Phys. 56, 2257 (1972).
                 Note: He and Ne are unpublished basis sets taken from the Gaussian program.
                 Note: Li and B from J. D. Dill and J. A. Pople, J. Chem. Phys. 62, 2921 (1975).
   Na - Ar     : M. M. Francl, W. J. Pietro, W. J. Hehre, J. S. Binkley, M. S. Gordon, 
                 D. J. DeFrees and J. A. Pople, J. Chem. Phys. 77, 3654 (1982).
   K - Zn      : V. A. Rassolov, J. A. Pople, M. A. Ratner, and T. L. Windus, J. Chem. Phys. 109, 1223 (1998).
   Additional Pol./Diff. from the 6-311G equivalent.

----- AuxJ basis set information -----
Your calculation utilizes the auxiliary basis: def2/J
   F. Weigend, Phys. Chem. Chem. Phys. 8, 1057 (2006).

================================================================================
                                        WARNINGS
                       Please study these warnings very carefully!
================================================================================


WARNING: The environment variable RSH_COMMAND is not set!
  ===> : All Displacements for the Numerical Hessian calculation
         will be started on localhost

WARNING: Geometry Optimization
  ===> : Switching off AutoStart
         For restart on a previous wavefunction, please use MOREAD

INFO   : the flag for use of the SHARK integral package has been found!

================================================================================
                                       INPUT FILE
================================================================================
NAME = orc_h2o_b3lyp_nosmd_raman.inp
|  1> !B3LYP 6-31+G* opt numfreq 
|  2> %pal nprocs 8 end
|  3> %elprop Polar 1 end
|  4> * xyz 0 1
|  5>     O       2.2186344E-01  6.4623884E-02  0.0000000E+00                      
|  6>     H      -1.0869454E+00  1.3371949E+00  0.0000000E+00                      
|  7>     H      -6.8796211E-01 -1.8541860E+00  0.0000000E+00
|  8> *
|  9> 
| 10> 
| 11>                          ****END OF INPUT****
================================================================================

                       *****************************
                       * Geometry Optimization Run *
                       *****************************

Geometry optimization settings:
Update method            Update   .... BFGS
Choice of coordinates    CoordSys .... Z-matrix Internals
Initial Hessian          InHess   .... Almoef's Model

Convergence Tolerances:
Energy Change            TolE     ....  5.0000e-06 Eh
Max. Gradient            TolMAXG  ....  3.0000e-04 Eh/bohr
RMS Gradient             TolRMSG  ....  1.0000e-04 Eh/bohr
Max. Displacement        TolMAXD  ....  4.0000e-03 bohr
RMS Displacement         TolRMSD  ....  2.0000e-03 bohr
Strict Convergence                ....  False
------------------------------------------------------------------------------
                        ORCA OPTIMIZATION COORDINATE SETUP
------------------------------------------------------------------------------

The optimization will be done in new redundant internal coordinates
Making redundant internal coordinates   ...  (new redundants) done
Evaluating the initial hessian          ...  (Almloef) done
Evaluating the coordinates              ...  done
Calculating the B-matrix                .... done
Calculating the G-matrix                .... done
Diagonalizing the G-matrix              .... done
The first mode is                       ....    0
The number of degrees of freedom        ....    3

    -----------------------------------------------------------------
                    Redundant Internal Coordinates


    -----------------------------------------------------------------
         Definition                    Initial Value    Approx d2E/dq
    -----------------------------------------------------------------
      1. B(H   1,O   0)                  1.8255         0.021634   
      2. B(H   2,O   0)                  2.1236         0.007237   
      3. A(H   1,O   0,H   2)          108.8272         0.132086   
    -----------------------------------------------------------------

Number of atoms                         .... 3
Number of degrees of freedom            .... 3

         *************************************************************
         *                GEOMETRY OPTIMIZATION CYCLE   1            *
         *************************************************************
---------------------------------
CARTESIAN COORDINATES (ANGSTROEM)
---------------------------------
  O      0.221863    0.064624    0.000000
  H     -1.086945    1.337195    0.000000
  H     -0.687962   -1.854186    0.000000

----------------------------
CARTESIAN COORDINATES (A.U.)
----------------------------
  NO LB      ZA    FRAG     MASS         X           Y           Z
   0 O     8.0000    0    15.999    0.419261    0.122121    0.000000
   1 H     1.0000    0     1.008   -2.054029    2.526932    0.000000
   2 H     1.0000    0     1.008   -1.300060   -3.503904    0.000000

--------------------------------
INTERNAL COORDINATES (ANGSTROEM)
--------------------------------
 O      0   0   0     0.000000000000     0.00000000     0.00000000
 H      1   0   0     1.825491049122     0.00000000     0.00000000
 H      1   2   0     2.123585153077   108.82722393     0.00000000

---------------------------
INTERNAL COORDINATES (A.U.)
---------------------------
 O      0   0   0     0.000000000000     0.00000000     0.00000000
 H      1   0   0     3.449678142766     0.00000000     0.00000000
 H      1   2   0     4.012994361377   108.82722393     0.00000000

---------------------
BASIS SET INFORMATION
---------------------
There are 2 groups of distinct atoms

 Group   1 Type O   : 11s5p1d contracted to 4s3p1d pattern {6311/311/1}
 Group   2 Type H   : 4s contracted to 2s pattern {31}

Atom   0O    basis set group =>   1
Atom   1H    basis set group =>   2
Atom   2H    basis set group =>   2
---------------------------------
AUXILIARY/J BASIS SET INFORMATION
---------------------------------
There are 2 groups of distinct atoms

 Group   1 Type O   : 12s5p4d2f1g contracted to 6s4p3d1f1g pattern {711111/2111/211/2/1}
 Group   2 Type H   : 5s2p1d contracted to 3s1p1d pattern {311/2/1}

Atom   0O    basis set group =>   1
Atom   1H    basis set group =>   2
Atom   2H    basis set group =>   2


           ************************************************************
           *        Program running with 8 parallel MPI-processes     *
           *              working on a common directory               *
           ************************************************************
------------------------------------------------------------------------------
                           ORCA GTO INTEGRAL CALCULATION
                           -- RI-GTO INTEGRALS CHOSEN --
------------------------------------------------------------------------------
------------------------------------------------------------------------------
                   ___                                                        
                  /   \      - P O W E R E D   B Y -                         
                 /     \                                                     
                 |  |  |   _    _      __       _____    __    __             
                 |  |  |  | |  | |    /  \     |  _  \  |  |  /  |          
                  \  \/   | |  | |   /    \    | | | |  |  | /  /          
                 / \  \   | |__| |  /  /\  \   | |_| |  |  |/  /          
                |  |  |   |  __  | /  /__\  \  |    /   |      \           
                |  |  |   | |  | | |   __   |  |    \   |  |\   \          
                \     /   | |  | | |  |  |  |  | |\  \  |  | \   \       
                 \___/    |_|  |_| |__|  |__|  |_| \__\ |__|  \__/        
                                                                              
                      - O R C A' S   B I G   F R I E N D -                    
                                      &                                       
                       - I N T E G R A L  F E E D E R -                       
                                                                              
 v1 FN, 2020, v2 2021                                                         
------------------------------------------------------------------------------


Reading SHARK input file orc_h2o_b3lyp_nosmd_raman.SHARKINP.tmp ... ok
----------------------
SHARK INTEGRAL PACKAGE
----------------------

Number of atoms                             ...      3
Number of basis functions                   ...     22
Number of shells                            ...     12
Maximum angular momentum                    ...      2
Integral batch strategy                     ... SHARK/LIBINT Hybrid
RI-J (if used) integral strategy            ... SPLIT-RIJ (Revised 2003 algorithm where possible)
Printlevel                                  ...      1
Contraction scheme used                     ... SEGMENTED contraction
Coulomb Range Separation                    ... NOT USED
Exchange Range Separation                   ... NOT USED
Finite Nucleus Model                        ... NOT USED
Auxiliary Coulomb fitting basis             ... AVAILABLE
   # of basis functions in Aux-J            ...     71
   # of shells in Aux-J                     ...     25
   Maximum angular momentum in Aux-J        ...      4
Auxiliary J/K fitting basis                 ... NOT available
Auxiliary Correlation fitting basis         ... NOT available
Auxiliary 'external' fitting basis          ... NOT available
Integral threshold                          ...     2.500000e-11
Primitive cut-off                           ...     2.500000e-12
Primitive pair pre-selection threshold      ...     2.500000e-12

Calculating pre-screening integrals         ... done (  0.1 sec) Dimension = 12
Organizing shell pair data                  ... done (  0.1 sec)
Shell pair information
Total number of shell pairs                 ...        78
Shell pairs after pre-screening             ...        78
Total number of primitive shell pairs       ...       352
Primitive shell pairs kept                  ...       315
          la=0 lb=0:     36 shell pairs
          la=1 lb=0:     24 shell pairs
          la=1 lb=1:      6 shell pairs
          la=2 lb=0:      8 shell pairs
          la=2 lb=1:      3 shell pairs
          la=2 lb=2:      1 shell pairs

Calculating one electron integrals          ... done (  0.0 sec)
Calculating RI/J V-Matrix + Cholesky decomp.... done (  0.1 sec)
Calculating Nuclear repulsion               ... done (  0.0 sec) ENN=      4.477114455444 Eh

SHARK setup successfully completed in   0.4 seconds

Maximum memory used throughout the entire GTOINT-calculation: 9.5 MB


           ************************************************************
           *        Program running with 8 parallel MPI-processes     *
           *              working on a common directory               *
           ************************************************************
-------------------------------------------------------------------------------
                                 ORCA SCF
-------------------------------------------------------------------------------

------------
SCF SETTINGS
------------
Hamiltonian:
 Density Functional     Method          .... DFT(GTOs)
 Exchange Functional    Exchange        .... B88
   X-Alpha parameter    XAlpha          ....  0.666667
   Becke's b parameter  XBeta           ....  0.004200
 Correlation Functional Correlation     .... LYP
 LDA part of GGA corr.  LDAOpt          .... VWN-5
 Gradients option       PostSCFGGA      .... off
 Hybrid DFT is turned on
   Fraction HF Exchange ScalHFX         ....  0.200000
   Scaling of DF-GGA-X  ScalDFX         ....  0.720000
   Scaling of DF-GGA-C  ScalDFC         ....  0.810000
   Scaling of DF-LDA-C  ScalLDAC        ....  1.000000
   Perturbative correction              ....  0.000000
   Density functional embedding theory  .... OFF
   NL short-range parameter             ....  4.800000
 RI-approximation to the Coulomb term is turned on
   Number of AuxJ basis functions       .... 71
   RIJ-COSX (HFX calculated with COS-X)).... on


General Settings:
 Integral files         IntName         .... orc_h2o_b3lyp_nosmd_raman
 Hartree-Fock type      HFTyp           .... RHF
 Total Charge           Charge          ....    0
 Multiplicity           Mult            ....    1
 Number of Electrons    NEL             ....   10
 Basis Dimension        Dim             ....   22
 Nuclear Repulsion      ENuc            ....      4.4771144554 Eh

Convergence Acceleration:
 DIIS                   CNVDIIS         .... on
   Start iteration      DIISMaxIt       ....    12
   Startup error        DIISStart       ....  0.200000
   # of expansion vecs  DIISMaxEq       ....     5
   Bias factor          DIISBfac        ....   1.050
   Max. coefficient     DIISMaxC        ....  10.000
 Trust-Rad. Augm. Hess. CNVTRAH         .... auto
   Auto Start mean grad. ratio tolernc. ....  1.125000
   Auto Start start iteration           ....    20
   Auto Start num. interpolation iter.  ....    10
   Max. Number of Micro iterations      ....    16
   Max. Number of Macro iterations      .... Maxiter - #DIIS iter
   Number of Davidson start vectors     ....     2
   Converg. threshold I  (grad. norm)   ....   1.000e-05
   Converg. threshold II (energy diff.) ....   1.000e-08
   Grad. Scal. Fac. for Micro threshold ....   0.100
   Minimum threshold for Micro iter.    ....   0.010
   NR start threshold (gradient norm)   ....   0.001
   Initial trust radius                 ....   0.400
   Minimum AH scaling param. (alpha)    ....   1.000
   Maximum AH scaling param. (alpha)    .... 1000.000
   Orbital update algorithm             .... Taylor
   White noise on init. David. guess    .... on
   Maximum white noise                  ....   0.010
   Quad. conv. algorithm                .... NR
 SOSCF                  CNVSOSCF        .... on
   Start iteration      SOSCFMaxIt      ....   150
   Startup grad/error   SOSCFStart      ....  0.003300
 Level Shifting         CNVShift        .... on
   Level shift para.    LevelShift      ....    0.2500
   Turn off err/grad.   ShiftErr        ....    0.0010
 Zerner damping         CNVZerner       .... off
 Static damping         CNVDamp         .... on
   Fraction old density DampFac         ....    0.7000
   Max. Damping (<1)    DampMax         ....    0.9800
   Min. Damping (>=0)   DampMin         ....    0.0000
   Turn off err/grad.   DampErr         ....    0.1000
 Fernandez-Rico         CNVRico         .... off

SCF Procedure:
 Maximum # iterations   MaxIter         ....   125
 SCF integral mode      SCFMode         .... Direct
   Integral package                     .... SHARK and LIBINT hybrid scheme
 Reset frequency        DirectResetFreq ....    20
 Integral Threshold     Thresh          ....  2.500e-11 Eh
 Primitive CutOff       TCut            ....  2.500e-12 Eh

Convergence Tolerance:
 Convergence Check Mode ConvCheckMode   .... Total+1el-Energy
 Convergence forced     ConvForced      .... 0
 Energy Change          TolE            ....  1.000e-08 Eh
 1-El. energy change                    ....  1.000e-05 Eh
 Orbital Gradient       TolG            ....  1.000e-05
 Orbital Rotation angle TolX            ....  1.000e-05
 DIIS Error             TolErr          ....  5.000e-07


Diagonalization of the overlap matrix:
Smallest eigenvalue                        ... 6.265e-02
Time for diagonalization                   ...    0.000 sec
Threshold for overlap eigenvalues          ... 1.000e-08
Number of eigenvalues below threshold      ... 0
Time for construction of square roots      ...    0.009 sec
Total time needed                          ...    0.010 sec

Time for model grid setup =    0.036 sec

------------------------------
INITIAL GUESS: MODEL POTENTIAL
------------------------------
Loading Hartree-Fock densities                     ... done
Calculating cut-offs                               ... done
Initializing the effective Hamiltonian             ... done
Setting up the integral package (SHARK)            ... done
Starting the Coulomb interaction                   ... done (   0.1 sec)
Reading the grid                                   ... done
Mapping shells                                     ... done
Starting the XC term evaluation                    ... done (   0.0 sec)
  promolecular density results
     # of electrons  =      9.999264184
     EX              =     -8.593833241
     EC              =     -0.311567485
     EX+EC           =     -8.905400726
Transforming the Hamiltonian                       ... done (   0.0 sec)
Diagonalizing the Hamiltonian                      ... done (   0.0 sec)
Back transforming the eigenvectors                 ... done (   0.0 sec)
Now organizing SCF variables                       ... done
                      ------------------
                      INITIAL GUESS DONE (   0.1 sec)
                      ------------------
-------------------
DFT GRID GENERATION
-------------------

General Integration Accuracy     IntAcc      ... 4.388
Radial Grid Type                 RadialGrid  ... OptM3 with GC (2021)
Angular Grid (max. ang.)         AngularGrid ... 4 (Lebedev-302)
Angular grid pruning method      GridPruning ... 4 (adaptive)
Weight generation scheme         WeightScheme... Becke
Basis function cutoff            BFCut       ... 1.0000e-11
Integration weight cutoff        WCut        ... 1.0000e-14
Angular grids for H and He will be reduced by one unit
Partially contracted basis set               ... off
Rotationally invariant grid construction     ... off

Total number of grid points                  ...    13123
Total number of batches                      ...      207
Average number of points per batch           ...       63
Average number of grid points per atom       ...     4374
Time for grid setup =    8.803 sec

--------------------
COSX GRID GENERATION
--------------------

GRIDX 1
-------
General Integration Accuracy     IntAcc      ... 3.816
Radial Grid Type                 RadialGrid  ... OptM3 with GC (2021)
Angular Grid (max. ang.)         AngularGrid ... 1 (Lebedev-50)
Angular grid pruning method      GridPruning ... 4 (adaptive)
Weight generation scheme         WeightScheme... Becke
Basis function cutoff            BFCut       ... 1.0000e-11
Integration weight cutoff        WCut        ... 1.0000e-14
Angular grids for H and He will be reduced by one unit
Partially contracted basis set               ... on
Rotationally invariant grid construction     ... off

Total number of grid points                  ...     1710
Total number of batches                      ...       28
Average number of points per batch           ...       61
Average number of grid points per atom       ...      570
UseSFitting                                  ... on

GRIDX 2
-------
General Integration Accuracy     IntAcc      ... 4.020
Radial Grid Type                 RadialGrid  ... OptM3 with GC (2021)
Angular Grid (max. ang.)         AngularGrid ... 2 (Lebedev-110)
Angular grid pruning method      GridPruning ... 4 (adaptive)
Weight generation scheme         WeightScheme... Becke
Basis function cutoff            BFCut       ... 1.0000e-11
Integration weight cutoff        WCut        ... 1.0000e-14
Angular grids for H and He will be reduced by one unit
Partially contracted basis set               ... on
Rotationally invariant grid construction     ... off

Total number of grid points                  ...     3937
Total number of batches                      ...       63
Average number of points per batch           ...       62
Average number of grid points per atom       ...     1312
UseSFitting                                  ... on

GRIDX 3
-------
General Integration Accuracy     IntAcc      ... 4.338
Radial Grid Type                 RadialGrid  ... OptM3 with GC (2021)
Angular Grid (max. ang.)         AngularGrid ... 3 (Lebedev-194)
Angular grid pruning method      GridPruning ... 4 (adaptive)
Weight generation scheme         WeightScheme... Becke
Basis function cutoff            BFCut       ... 1.0000e-11
Integration weight cutoff        WCut        ... 1.0000e-14
Angular grids for H and He will be reduced by one unit
Partially contracted basis set               ... on
Rotationally invariant grid construction     ... off

Total number of grid points                  ...     8557
Total number of batches                      ...      134
Average number of points per batch           ...       63
Average number of grid points per atom       ...     2852
UseSFitting                                  ... on

Time for X-Grid setup             =    0.593 sec

--------------
SCF ITERATIONS
--------------
ITER       Energy         Delta-E        Max-DP      RMS-DP      [F,P]     Damp
               ***  Starting incremental Fock matrix formation  ***
  0    -75.6832276658   0.000000000000 0.21158919  0.02365541  0.4941984 0.7000
  1    -75.9215794264  -0.238351760623 0.11997088  0.01260134  0.0467638 0.7000
  2    -75.8988608589   0.022718567515 0.06343994  0.00627499  0.2112304 0.7000
                               ***Turning on DIIS***
  3    -75.9539898679  -0.055129009038 0.04269436  0.00548223  0.1004758 0.7000
  4    -75.9807831149  -0.026793246940 0.08832528  0.00931772  0.0457179 0.0000
  5    -76.0121632873  -0.031380172406 0.00807105  0.00071470  0.1529564 0.7000
  6    -76.0173824175  -0.005219130218 0.00991946  0.00090744  0.1382752 0.7000
  7    -76.0232330430  -0.005850625524 0.00977092  0.00091244  0.1222919 0.7000
  8    -76.0283274108  -0.005094367764 0.01076851  0.00100079  0.1062764 0.7000
  9    -76.0330948427  -0.004767431949 0.05117730  0.00493359  0.0879443 0.0000
 10    -76.0436678498  -0.010573007034 0.00569172  0.00055628  0.0076600 0.0000
 11    -76.0437377281  -0.000069878361 0.00209241  0.00018714  0.0036208 0.0000
                      *** Initiating the SOSCF procedure ***
                           *** Shutting down DIIS ***
                      *** Re-Reading the Fockian *** 
                      *** Removing any level shift *** 
ITER      Energy       Delta-E        Grad      Rot      Max-DP    RMS-DP
 12    -76.04374914  -0.0000114084  0.000488  0.000488  0.001058  0.000093
               *** Restarting incremental Fock matrix formation ***
 13    -76.04378677  -0.0000376315  0.000317  0.002011  0.002280  0.000208
 14    -76.04377314   0.0000136288  0.002030  0.002122  0.001824  0.000177
 15    -76.04378759  -0.0000144474  0.000039  0.000206  0.000167  0.000018
 16    -76.04378760  -0.0000000108  0.000035  0.000099  0.000092  0.000011
 17    -76.04378761  -0.0000000149  0.000005  0.000005  0.000008  0.000001
                 **** Energy Check signals convergence ****
              ***Rediagonalizing the Fockian in SOSCF/NRSCF***

               *****************************************************
               *                     SUCCESS                       *
               *           SCF CONVERGED AFTER  18 CYCLES          *
               *****************************************************

Old exchange energy                            =     -1.671894653 Eh
New exchange energy                            =     -1.671909888 Eh
Exchange energy change after final integration =     -0.000015236 Eh
Total energy after final integration           =    -76.043802848 Eh
Final COS-X integration done in                =     0.028 sec

----------------
TOTAL SCF ENERGY
----------------

Total Energy       :          -76.04380285 Eh           -2069.25707 eV

Components:
Nuclear Repulsion  :            4.47711446 Eh             121.82848 eV
Electronic Energy  :          -80.52091730 Eh           -2191.08555 eV
One Electron Energy:         -113.70402054 Eh           -3094.04370 eV
Two Electron Energy:           33.18310324 Eh             902.95814 eV
Max COSX asymmetry :            0.00000926 Eh               0.00025 eV

Virial components:
Potential Energy   :         -151.06478582 Eh           -4110.68181 eV
Kinetic Energy     :           75.02098297 Eh            2041.42473 eV
Virial Ratio       :            2.01363378


DFT components:
N(Alpha)           :        5.000044891450 electrons
N(Beta)            :        5.000044891450 electrons
N(Total)           :       10.000089782900 electrons
E(X)               :       -6.788820664387 Eh       
E(C)               :       -0.375990307546 Eh       
E(XC)              :       -7.164810971934 Eh       
DFET-embed. en.    :        0.000000000000 Eh       

---------------
SCF CONVERGENCE
---------------

  Last Energy change         ...    5.2357e-10  Tolerance :   1.0000e-08
  Last MAX-Density change    ...    5.5511e-16  Tolerance :   1.0000e-07
  Last RMS-Density change    ...    6.5533e-17  Tolerance :   5.0000e-09
  Last Orbital Gradient      ...    1.5930e-06  Tolerance :   1.0000e-05
  Last Orbital Rotation      ...    1.9599e-06  Tolerance :   1.0000e-05

             **** THE GBW FILE WAS UPDATED (orc_h2o_b3lyp_nosmd_raman.gbw) ****
             **** DENSITY orc_h2o_b3lyp_nosmd_raman.scfp WAS UPDATED ****
             **** ENERGY FILE WAS UPDATED (orc_h2o_b3lyp_nosmd_raman.en.tmp) ****
             **** THE GBW FILE WAS UPDATED (orc_h2o_b3lyp_nosmd_raman.gbw) ****
             **** DENSITY orc_h2o_b3lyp_nosmd_raman.scfp WAS UPDATED ****
----------------
ORBITAL ENERGIES
----------------

  NO   OCC          E(Eh)            E(eV) 
   0   2.0000     -19.232247      -523.3360 
   1   2.0000      -0.887084       -24.1388 
   2   2.0000      -0.351531        -9.5656 
   3   2.0000      -0.324049        -8.8178 
   4   2.0000      -0.299322        -8.1450 
   5   0.0000      -0.191057        -5.1989 
   6   0.0000      -0.145199        -3.9511 
   7   0.0000       0.151098         4.1116 
   8   0.0000       0.165270         4.4972 
   9   0.0000       0.205185         5.5834 
  10   0.0000       0.209503         5.7009 
  11   0.0000       0.786081        21.3904 
  12   0.0000       0.800865        21.7927 
  13   0.0000       1.119809        30.4716 
  14   0.0000       1.133947        30.8563 
  15   0.0000       1.153222        31.3808 
  16   0.0000       1.417823        38.5809 
  17   0.0000       1.793353        48.7996 
  18   0.0000       1.808352        49.2077 
  19   0.0000       1.812364        49.3169 
  20   0.0000       1.822821        49.6015 
  21   0.0000       1.839231        50.0480 

                    ********************************
                    * MULLIKEN POPULATION ANALYSIS *
                    ********************************

-----------------------
MULLIKEN ATOMIC CHARGES
-----------------------
   0 O :   -0.464029
   1 H :    0.242609
   2 H :    0.221420
Sum of atomic charges:    0.0000000

--------------------------------
MULLIKEN REDUCED ORBITAL CHARGES
--------------------------------
  0 O s       :     4.002904  s :     4.002904
      pz      :     1.999925  p :     4.459268
      px      :     1.253183
      py      :     1.206160
      dz2     :     0.000507  d :     0.001857
      dxz     :     0.000073
      dyz     :     0.000002
      dx2y2   :     0.000016
      dxy     :     0.001259
  1 H s       :     0.757391  s :     0.757391
  2 H s       :     0.778580  s :     0.778580


                     *******************************
                     * LOEWDIN POPULATION ANALYSIS *
                     *******************************

----------------------
LOEWDIN ATOMIC CHARGES
----------------------
   0 O :   -0.619098
   1 H :    0.326602
   2 H :    0.292496

-------------------------------
LOEWDIN REDUCED ORBITAL CHARGES
-------------------------------
  0 O s       :     4.016185  s :     4.016185
      pz      :     1.999925  p :     4.600180
      px      :     1.308342
      py      :     1.291913
      dz2     :     0.000715  d :     0.002733
      dxz     :     0.000073
      dyz     :     0.000002
      dx2y2   :     0.000107
      dxy     :     0.001836
  1 H s       :     0.673398  s :     0.673398
  2 H s       :     0.707504  s :     0.707504


                      *****************************
                      * MAYER POPULATION ANALYSIS *
                      *****************************

  NA   - Mulliken gross atomic population
  ZA   - Total nuclear charge
  QA   - Mulliken gross atomic charge
  VA   - Mayer's total valence
  BVA  - Mayer's bonded valence
  FA   - Mayer's free valence

  ATOM       NA         ZA         QA         VA         BVA        FA
  0 O      8.4640     8.0000    -0.4640     1.8881     1.8881     0.0000
  1 H      0.7574     1.0000     0.2426     0.9387     0.9387     0.0000
  2 H      0.7786     1.0000     0.2214     0.9503     0.9503     0.0000

  Mayer bond orders larger than 0.100000
B(  0-O ,  1-H ) :   0.9383 B(  0-O ,  2-H ) :   0.9498 

-------
TIMINGS
-------

Total SCF time: 0 days 0 hours 0 min 19 sec 

Total time                  ....      19.397 sec
Sum of individual times     ....      19.078 sec  ( 98.4%)

Fock matrix formation       ....       9.447 sec  ( 48.7%)
  Split-RI-J                ....       0.167 sec  (  1.8% of F)
  Chain of spheres X        ....       0.427 sec  (  4.5% of F)
  XC integration            ....       8.640 sec  ( 91.5% of F)
    Basis function eval.    ....       0.025 sec  (  0.3% of XC)
    Density eval.           ....       6.025 sec  ( 69.7% of XC)
    XC-Functional eval.     ....       0.274 sec  (  3.2% of XC)
    XC-Potential eval.      ....       0.009 sec  (  0.1% of XC)
Diagonalization             ....       0.040 sec  (  0.2%)
Density matrix formation    ....       0.002 sec  (  0.0%)
Population analysis         ....       0.028 sec  (  0.1%)
Initial guess               ....       0.058 sec  (  0.3%)
Orbital Transformation      ....       0.000 sec  (  0.0%)
Orbital Orthonormalization  ....       0.000 sec  (  0.0%)
DIIS solution               ....       0.041 sec  (  0.2%)
SOSCF solution              ....       0.030 sec  (  0.2%)
Grid generation             ....       9.431 sec  ( 48.6%)

Maximum memory used throughout the entire SCF-calculation: 43.1 MB

-------------------------   --------------------
FINAL SINGLE POINT ENERGY       -76.043802847809
-------------------------   --------------------



           ************************************************************
           *        Program running with 8 parallel MPI-processes     *
           *              working on a common directory               *
           ************************************************************
------------------------------------------------------------------------------
                         ORCA SCF GRADIENT CALCULATION
------------------------------------------------------------------------------

 ... reading COSX grid (gridx3)
Gradient of the Kohn-Sham DFT energy:
Kohn-Sham wavefunction type      ... RKS
Hartree-Fock exchange scaling    ...    0.200
Number of operators              ...    1
Number of atoms                  ...    3
Basis set dimensions             ...   22
Integral neglect threshold       ... 2.5e-11
Integral primitive cutoff        ... 2.5e-12
SHARK Integral package           ... ON

Nuc. rep. gradient       (SHARK) ... done (  0.0 sec)
HCore & Overlap gradient (SHARK) ... done (  0.0 sec)
RI-J gradient            (SHARK) ... done (  0.1 sec)
COSX-gradient                    ... done (  0.1 sec)
Exchange-correlation gradient    ... done

------------------
CARTESIAN GRADIENT
------------------

   1   O   :    0.077152007   -0.004668540    0.000000007
   2   H   :   -0.055270624    0.060519142    0.000000002
   3   H   :   -0.021865458   -0.055850061   -0.000000000

Difference to translation invariance:
           :    0.0000159246    0.0000005421    0.0000000081

Difference to rotation invariance:
           :    0.0000000054   -0.0000000000   -0.0000282501

Norm of the cartesian gradient     ...    0.1276282231
RMS gradient                       ...    0.0425427410
MAX gradient                       ...    0.0771520066

-------
TIMINGS
-------

Total SCF gradient time            ...        0.263 sec

One electron gradient       ....       0.001 sec  (  0.4%)
RI-J Coulomb gradient       ....       0.089 sec  ( 33.8%)
COSX gradient               ....       0.055 sec  ( 20.9%)
XC gradient                 ....       0.010 sec  (  3.7%)

Maximum memory used throughout the entire SCFGRAD-calculation: 32.7 MB
------------------------------------------------------------------------------
                         ORCA GEOMETRY RELAXATION STEP
------------------------------------------------------------------------------

Reading the OPT-File                    .... done
Getting information on internals        .... done
Copying old internal coords+grads       .... done
Making the new internal coordinates     .... (new redundants).... done
Validating the new internal coordinates .... (new redundants).... done
Calculating the B-matrix                .... done
Calculating the G,G- and P matrices     .... done
Transforming gradient to internals      .... done
Projecting the internal gradient        .... done
Number of atoms                         ....   3
Number of internal coordinates          ....   3
Current Energy                          ....   -76.043802848 Eh
Current gradient norm                   ....     0.127628223 Eh/bohr
Maximum allowed component of the step   ....  0.300
Current trust radius                    ....  0.300
Evaluating the initial hessian          ....  (Almloef) done
Projecting the Hessian                  .... done
Forming the augmented Hessian           .... done
Diagonalizing the augmented Hessian     .... done
Last element of RFO vector              ....  0.734957491
Lowest eigenvalues of augmented Hessian:
 -0.094268666  0.012186955  0.105580849
Length of the computed step             ....  0.922656330
Warning: the length of the step is outside the trust region - taking restricted step instead
The input lambda is                     ....    -0.094269
   iter:   1  x=   -0.143403  g=   15.494223 f(x)=     0.761295
   iter:   2  x=   -0.205608  g=    5.100057 f(x)=     0.317250
   iter:   3  x=   -0.269421  g=    1.898136 f(x)=     0.121126
   iter:   4  x=   -0.311608  g=    0.889836 f(x)=     0.037540
   iter:   5  x=   -0.323361  g=    0.589117 f(x)=     0.006924
   iter:   6  x=   -0.324029  g=    0.530173 f(x)=     0.000354
   iter:   7  x=   -0.324031  g=    0.527061 f(x)=     0.000001
   iter:   8  x=   -0.324031  g=    0.527052 f(x)=     0.000000
   iter:   9  x=   -0.324031  g=    0.527052 f(x)=     0.000000
The output lambda is                    ....    -0.324031 (9 iterations)
The final length of the internal step   ....  0.300000000
Converting the step to cartesian space:
 Initial RMS(Int)=    0.1732050808
Transforming coordinates:
 Iter   0:  RMS(Cart)=    0.1003841091 RMS(Int)=    0.1727411443
 Iter   1:  RMS(Cart)=    0.0014567742 RMS(Int)=    0.0016602844
 Iter   2:  RMS(Cart)=    0.0000793082 RMS(Int)=    0.0001138753
 Iter   3:  RMS(Cart)=    0.0000041958 RMS(Int)=    0.0000060986
 Iter   4:  RMS(Cart)=    0.0000002211 RMS(Int)=    0.0000003222
 Iter   5:  RMS(Cart)=    0.0000000116 RMS(Int)=    0.0000000170
done
Storing new coordinates                 .... done

                                .--------------------.
          ----------------------|Geometry convergence|-------------------------
          Item                value                   Tolerance       Converged
          ---------------------------------------------------------------------
          RMS gradient        0.0593152863            0.0001000000      NO
          MAX gradient        0.0818211345            0.0003000000      NO
          RMS step            0.1732050808            0.0020000000      NO
          MAX step            0.2367065020            0.0040000000      NO
          ........................................................
          Max(Bonds)      0.1253      Max(Angles)    2.10
          Max(Dihed)        0.00      Max(Improp)    0.00
          ---------------------------------------------------------------------

The optimization has not yet converged - more geometry cycles are needed


    ---------------------------------------------------------------------------
                         Redundant Internal Coordinates
                            (Angstroem and degrees)

        Definition                    Value    dE/dq     Step     New-Value
    ----------------------------------------------------------------------------
     1. B(H   1,O   0)                1.8255  0.081821 -0.1253    1.7002   
     2. B(H   2,O   0)                2.1236  0.059833 -0.0956    2.0280   
     3. A(H   1,O   0,H   2)          108.83  0.016739   -2.10    106.72   
    ----------------------------------------------------------------------------

         *************************************************************
         *                GEOMETRY OPTIMIZATION CYCLE   2            *
         *************************************************************
---------------------------------
CARTESIAN COORDINATES (ANGSTROEM)
---------------------------------
  O      0.194919    0.072542    0.000000
  H     -1.054541    1.225640    0.000000
  H     -0.693422   -1.750549    0.000000

----------------------------
CARTESIAN COORDINATES (A.U.)
----------------------------
  NO LB      ZA    FRAG     MASS         X           Y           Z
   0 O     8.0000    0    15.999    0.368343    0.137084    0.000000
   1 H     1.0000    0     1.008   -1.992794    2.316124    0.000000
   2 H     1.0000    0     1.008   -1.310377   -3.308058    0.000000

--------------------------------
INTERNAL COORDINATES (ANGSTROEM)
--------------------------------
 O      0   0   0     0.000000000000     0.00000000     0.00000000
 H      1   0   0     1.700231362695     0.00000000     0.00000000
 H      1   2   0     2.028005643328   106.72455968     0.00000000

---------------------------
INTERNAL COORDINATES (A.U.)
---------------------------
 O      0   0   0     0.000000000000     0.00000000     0.00000000
 H      1   0   0     3.212971639798     0.00000000     0.00000000
 H      1   2   0     3.832375263937   106.72455968     0.00000000



           ************************************************************
           *        Program running with 8 parallel MPI-processes     *
           *              working on a common directory               *
           ************************************************************
------------------------------------------------------------------------------
                   ___                                                        
                  /   \      - P O W E R E D   B Y -                         
                 /     \                                                     
                 |  |  |   _    _      __       _____    __    __             
                 |  |  |  | |  | |    /  \     |  _  \  |  |  /  |          
                  \  \/   | |  | |   /    \    | | | |  |  | /  /          
                 / \  \   | |__| |  /  /\  \   | |_| |  |  |/  /          
                |  |  |   |  __  | /  /__\  \  |    /   |      \           
                |  |  |   | |  | | |   __   |  |    \   |  |\   \          
                \     /   | |  | | |  |  |  |  | |\  \  |  | \   \       
                 \___/    |_|  |_| |__|  |__|  |_| \__\ |__|  \__/        
                                                                              
                      - O R C A' S   B I G   F R I E N D -                    
                                      &                                       
                       - I N T E G R A L  F E E D E R -                       
                                                                              
 v1 FN, 2020, v2 2021                                                         
------------------------------------------------------------------------------


Reading SHARK input file orc_h2o_b3lyp_nosmd_raman.SHARKINP.tmp ... ok
----------------------
SHARK INTEGRAL PACKAGE
----------------------

Number of atoms                             ...      3
Number of basis functions                   ...     22
Number of shells                            ...     12
Maximum angular momentum                    ...      2
Integral batch strategy                     ... SHARK/LIBINT Hybrid
RI-J (if used) integral strategy            ... SPLIT-RIJ (Revised 2003 algorithm where possible)
Printlevel                                  ...      1
Contraction scheme used                     ... SEGMENTED contraction
Coulomb Range Separation                    ... NOT USED
Exchange Range Separation                   ... NOT USED
Finite Nucleus Model                        ... NOT USED
Auxiliary Coulomb fitting basis             ... AVAILABLE
   # of basis functions in Aux-J            ...     71
   # of shells in Aux-J                     ...     25
   Maximum angular momentum in Aux-J        ...      4
Auxiliary J/K fitting basis                 ... NOT available
Auxiliary Correlation fitting basis         ... NOT available
Auxiliary 'external' fitting basis          ... NOT available
Integral threshold                          ...     2.500000e-11
Primitive cut-off                           ...     2.500000e-12
Primitive pair pre-selection threshold      ...     2.500000e-12

Calculating pre-screening integrals         ... done (  0.0 sec) Dimension = 12
Organizing shell pair data                  ... done (  0.0 sec)
Shell pair information
Total number of shell pairs                 ...        78
Shell pairs after pre-screening             ...        78
Total number of primitive shell pairs       ...       352
Primitive shell pairs kept                  ...       319
          la=0 lb=0:     36 shell pairs
          la=1 lb=0:     24 shell pairs
          la=1 lb=1:      6 shell pairs
          la=2 lb=0:      8 shell pairs
          la=2 lb=1:      3 shell pairs
          la=2 lb=2:      1 shell pairs

Calculating one electron integrals          ... done (  0.0 sec)
Calculating RI/J V-Matrix + Cholesky decomp.... done (  0.1 sec)
Calculating Nuclear repulsion               ... done (  0.0 sec) ENN=      4.753894121383 Eh

SHARK setup successfully completed in   0.3 seconds

Maximum memory used throughout the entire GTOINT-calculation: 9.5 MB


           ************************************************************
           *        Program running with 8 parallel MPI-processes     *
           *              working on a common directory               *
           ************************************************************

Diagonalization of the overlap matrix:
Smallest eigenvalue                        ... 5.854e-02
Time for diagonalization                   ...    0.000 sec
Threshold for overlap eigenvalues          ... 1.000e-08
Number of eigenvalues below threshold      ... 0
Time for construction of square roots      ...    0.016 sec
Total time needed                          ...    0.017 sec

-------------------
DFT GRID GENERATION
-------------------

General Integration Accuracy     IntAcc      ... 4.388
Radial Grid Type                 RadialGrid  ... OptM3 with GC (2021)
Angular Grid (max. ang.)         AngularGrid ... 4 (Lebedev-302)
Angular grid pruning method      GridPruning ... 4 (adaptive)
Weight generation scheme         WeightScheme... Becke
Basis function cutoff            BFCut       ... 1.0000e-11
Integration weight cutoff        WCut        ... 1.0000e-14
Angular grids for H and He will be reduced by one unit
Partially contracted basis set               ... off
Rotationally invariant grid construction     ... off

Total number of grid points                  ...    13121
Total number of batches                      ...      207
Average number of points per batch           ...       63
Average number of grid points per atom       ...     4374
Time for grid setup =    0.172 sec

--------------------
COSX GRID GENERATION
--------------------

GRIDX 1
-------
General Integration Accuracy     IntAcc      ... 3.816
Radial Grid Type                 RadialGrid  ... OptM3 with GC (2021)
Angular Grid (max. ang.)         AngularGrid ... 1 (Lebedev-50)
Angular grid pruning method      GridPruning ... 4 (adaptive)
Weight generation scheme         WeightScheme... Becke
Basis function cutoff            BFCut       ... 1.0000e-11
Integration weight cutoff        WCut        ... 1.0000e-14
Angular grids for H and He will be reduced by one unit
Partially contracted basis set               ... on
Rotationally invariant grid construction     ... off

Total number of grid points                  ...     1710
Total number of batches                      ...       28
Average number of points per batch           ...       61
Average number of grid points per atom       ...      570
UseSFitting                                  ... on

GRIDX 2
-------
General Integration Accuracy     IntAcc      ... 4.020
Radial Grid Type                 RadialGrid  ... OptM3 with GC (2021)
Angular Grid (max. ang.)         AngularGrid ... 2 (Lebedev-110)
Angular grid pruning method      GridPruning ... 4 (adaptive)
Weight generation scheme         WeightScheme... Becke
Basis function cutoff            BFCut       ... 1.0000e-11
Integration weight cutoff        WCut        ... 1.0000e-14
Angular grids for H and He will be reduced by one unit
Partially contracted basis set               ... on
Rotationally invariant grid construction     ... off

Total number of grid points                  ...     3936
Total number of batches                      ...       63
Average number of points per batch           ...       62
Average number of grid points per atom       ...     1312
UseSFitting                                  ... on

GRIDX 3
-------
General Integration Accuracy     IntAcc      ... 4.338
Radial Grid Type                 RadialGrid  ... OptM3 with GC (2021)
Angular Grid (max. ang.)         AngularGrid ... 3 (Lebedev-194)
Angular grid pruning method      GridPruning ... 4 (adaptive)
Weight generation scheme         WeightScheme... Becke
Basis function cutoff            BFCut       ... 1.0000e-11
Integration weight cutoff        WCut        ... 1.0000e-14
Angular grids for H and He will be reduced by one unit
Partially contracted basis set               ... on
Rotationally invariant grid construction     ... off

Total number of grid points                  ...     8558
Total number of batches                      ...      136
Average number of points per batch           ...       62
Average number of grid points per atom       ...     2853
UseSFitting                                  ... on

Time for X-Grid setup             =    0.255 sec

--------------
SCF ITERATIONS
--------------
ITER       Energy         Delta-E        Max-DP      RMS-DP      [F,P]     Damp
               ***  Starting incremental Fock matrix formation  ***
  0    -76.0757134215   0.000000000000 0.00673670  0.00065907  0.0168791 0.7000
  1    -76.0759586069  -0.000245185315 0.00366440  0.00043929  0.0076058 0.7000
                               ***Turning on DIIS***
  2    -76.0760385458  -0.000079938951 0.00767649  0.00091216  0.0068741 0.0000
                      *** Initiating the SOSCF procedure ***
                           *** Shutting down DIIS ***
                      *** Re-Reading the Fockian *** 
                      *** Removing any level shift *** 
ITER      Energy       Delta-E        Grad      Rot      Max-DP    RMS-DP
  3    -76.07631336  -0.0002748123  0.001199  0.001199  0.002276  0.000244
               *** Restarting incremental Fock matrix formation ***
  4    -76.07631799  -0.0000046359  0.000839  0.005272  0.005178  0.000523
  5    -76.07623288   0.0000851155  0.004906  0.005072  0.004324  0.000439
  6    -76.07632210  -0.0000892227  0.000082  0.000453  0.000337  0.000041
  7    -76.07632210  -0.0000000008  0.000100  0.000196  0.000189  0.000022
  8    -76.07632220  -0.0000000988  0.000008  0.000030  0.000019  0.000003
  9    -76.07632220  -0.0000000019  0.000003  0.000007  0.000005  0.000001
                 **** Energy Check signals convergence ****
              ***Rediagonalizing the Fockian in SOSCF/NRSCF***

               *****************************************************
               *                     SUCCESS                       *
               *           SCF CONVERGED AFTER  10 CYCLES          *
               *****************************************************

Old exchange energy                            =     -1.678012575 Eh
New exchange energy                            =     -1.678051751 Eh
Exchange energy change after final integration =     -0.000039176 Eh
Total energy after final integration           =    -76.076361378 Eh
Final COS-X integration done in                =     0.027 sec
Total Energy       :          -76.07636138 Eh           -2070.14304 eV
  Last Energy change         ...    3.0924e-10  Tolerance :   1.0000e-08
  Last MAX-Density change    ...    8.8818e-16  Tolerance :   1.0000e-07
             **** THE GBW FILE WAS UPDATED (orc_h2o_b3lyp_nosmd_raman.gbw) ****
             **** DENSITY orc_h2o_b3lyp_nosmd_raman.scfp WAS UPDATED ****
             **** ENERGY FILE WAS UPDATED (orc_h2o_b3lyp_nosmd_raman.en.tmp) ****
             **** THE GBW FILE WAS UPDATED (orc_h2o_b3lyp_nosmd_raman.gbw) ****
             **** DENSITY orc_h2o_b3lyp_nosmd_raman.scfp WAS UPDATED ****
Total SCF time: 0 days 0 hours 0 min 3 sec 

Maximum memory used throughout the entire SCF-calculation: 43.1 MB

-------------------------   --------------------
FINAL SINGLE POINT ENERGY       -76.076361377835
-------------------------   --------------------



           ************************************************************
           *        Program running with 8 parallel MPI-processes     *
           *              working on a common directory               *
           ************************************************************
------------------------------------------------------------------------------
                         ORCA SCF GRADIENT CALCULATION
------------------------------------------------------------------------------

 ... reading COSX grid (gridx3)
Gradient of the Kohn-Sham DFT energy:
Kohn-Sham wavefunction type      ... RKS
Hartree-Fock exchange scaling    ...    0.200
Number of operators              ...    1
Number of atoms                  ...    3
Basis set dimensions             ...   22
Integral neglect threshold       ... 2.5e-11
Integral primitive cutoff        ... 2.5e-12
SHARK Integral package           ... ON

Nuc. rep. gradient       (SHARK) ... done (  0.0 sec)
HCore & Overlap gradient (SHARK) ... done (  0.0 sec)
RI-J gradient            (SHARK) ... done (  0.0 sec)
COSX-gradient                    ... done (  0.1 sec)
Exchange-correlation gradient    ... done

------------------
CARTESIAN GRADIENT
------------------

   1   O   :    0.088868292   -0.004176803   -0.000000036
   2   H   :   -0.063687440    0.066014398   -0.000000000
   3   H   :   -0.025183894   -0.061849563   -0.000000001

Difference to translation invariance:
           :   -0.0000030425   -0.0000119679   -0.0000000364

Difference to rotation invariance:
           :   -0.0000000035    0.0000000123   -0.0000295180

Norm of the cartesian gradient     ...    0.1441825462
RMS gradient                       ...    0.0480608487
MAX gradient                       ...    0.0888682917

-------
TIMINGS
-------

Total SCF gradient time            ...        0.224 sec

One electron gradient       ....       0.001 sec  (  0.6%)
RI-J Coulomb gradient       ....       0.043 sec  ( 19.0%)
COSX gradient               ....       0.053 sec  ( 23.7%)
XC gradient                 ....       0.011 sec  (  4.8%)

Maximum memory used throughout the entire SCFGRAD-calculation: 32.7 MB
------------------------------------------------------------------------------
                         ORCA GEOMETRY RELAXATION STEP
------------------------------------------------------------------------------

Reading the OPT-File                    .... done
Getting information on internals        .... done
Copying old internal coords+grads       .... done
Making the new internal coordinates     .... (new redundants).... done
Validating the new internal coordinates .... (new redundants).... done
Calculating the B-matrix                .... done
Calculating the G,G- and P matrices     .... done
Transforming gradient to internals      .... done
Projecting the internal gradient        .... done
Number of atoms                         ....   3
Number of internal coordinates          ....   3
Current Energy                          ....   -76.076361378 Eh
Current gradient norm                   ....     0.144182546 Eh/bohr
Maximum allowed component of the step   ....  0.300
Current trust radius                    ....  0.300
Updating the Hessian (BFGS)             .... done
Forming the augmented Hessian           .... done
Diagonalizing the augmented Hessian     .... done
Last element of RFO vector              ....  0.644176826
Lowest eigenvalues of augmented Hessian:
 -0.135925702  0.009541714  0.095518392
Length of the computed step             ....  1.187370565
Warning: the length of the step is outside the trust region - taking restricted step instead
The input lambda is                     ....    -0.135926
   iter:   1  x=   -0.181038  g=   29.257136 f(x)=     1.319849
   iter:   2  x=   -0.242058  g=    9.245791 f(x)=     0.564179
   iter:   3  x=   -0.314797  g=    3.153516 f(x)=     0.229383
   iter:   4  x=   -0.380807  g=    1.256043 f(x)=     0.082911
   iter:   5  x=   -0.414946  g=    0.659139 f(x)=     0.022502
   iter:   6  x=   -0.420956  g=    0.495196 f(x)=     0.002976
   iter:   7  x=   -0.421104  g=    0.472159 f(x)=     0.000070
   iter:   8  x=   -0.421104  g=    0.471609 f(x)=     0.000000
   iter:   9  x=   -0.421104  g=    0.471609 f(x)=     0.000000
   iter:  10  x=   -0.421104  g=    0.471609 f(x)=     0.000000
The output lambda is                    ....    -0.421104 (10 iterations)
The final length of the internal step   ....  0.300000000
Converting the step to cartesian space:
 Initial RMS(Int)=    0.1732050808
Transforming coordinates:
 Iter   0:  RMS(Cart)=    0.1002034142 RMS(Int)=    0.1726634783
 Iter   1:  RMS(Cart)=    0.0016731129 RMS(Int)=    0.0020201005
 Iter   2:  RMS(Cart)=    0.0000964539 RMS(Int)=    0.0001462528
 Iter   3:  RMS(Cart)=    0.0000053207 RMS(Int)=    0.0000081845
 Iter   4:  RMS(Cart)=    0.0000002917 RMS(Int)=    0.0000004502
 Iter   5:  RMS(Cart)=    0.0000000160 RMS(Int)=    0.0000000247
done
Storing new coordinates                 .... done

                                .--------------------.
          ----------------------|Geometry convergence|-------------------------
          Item                value                   Tolerance       Converged
          ---------------------------------------------------------------------
          Energy change      -0.0325585300            0.0000050000      NO
          RMS gradient        0.0661246322            0.0001000000      NO
          MAX gradient        0.0915779850            0.0003000000      NO
          RMS step            0.1732050808            0.0020000000      NO
          MAX step            0.2406537647            0.0040000000      NO
          ........................................................
          Max(Bonds)      0.1273      Max(Angles)    2.32
          Max(Dihed)        0.00      Max(Improp)    0.00
          ---------------------------------------------------------------------

The optimization has not yet converged - more geometry cycles are needed


    ---------------------------------------------------------------------------
                         Redundant Internal Coordinates
                            (Angstroem and degrees)

        Definition                    Value    dE/dq     Step     New-Value
    ----------------------------------------------------------------------------
     1. B(H   1,O   0)                1.7002  0.091578 -0.1273    1.5729   
     2. B(H   2,O   0)                2.0280  0.066625 -0.0923    1.9357   
     3. A(H   1,O   0,H   2)          106.72  0.017086   -2.32    104.41   
    ----------------------------------------------------------------------------

         *************************************************************
         *                GEOMETRY OPTIMIZATION CYCLE   3            *
         *************************************************************
---------------------------------
CARTESIAN COORDINATES (ANGSTROEM)
---------------------------------
  O      0.166741    0.082490    0.000000
  H     -1.020754    1.113905    0.000000
  H     -0.699031   -1.648762    0.000000

----------------------------
CARTESIAN COORDINATES (A.U.)
----------------------------
  NO LB      ZA    FRAG     MASS         X           Y           Z
   0 O     8.0000    0    15.999    0.315094    0.155883    0.000000
   1 H     1.0000    0     1.008   -1.928945    2.104976    0.000000
   2 H     1.0000    0     1.008   -1.320977   -3.115709    0.000000

--------------------------------
INTERNAL COORDINATES (ANGSTROEM)
--------------------------------
 O      0   0   0     0.000000000000     0.00000000     0.00000000
 H      1   0   0     1.572882874541     0.00000000     0.00000000
 H      1   2   0     1.935664042796   104.40751496     0.00000000

---------------------------
INTERNAL COORDINATES (A.U.)
---------------------------
 O      0   0   0     0.000000000000     0.00000000     0.00000000
 H      1   0   0     2.972317873617     0.00000000     0.00000000
 H      1   2   0     3.657874928163   104.40751496     0.00000000



           ************************************************************
           *        Program running with 8 parallel MPI-processes     *
           *              working on a common directory               *
           ************************************************************
------------------------------------------------------------------------------
                   ___                                                        
                  /   \      - P O W E R E D   B Y -                         
                 /     \                                                     
                 |  |  |   _    _      __       _____    __    __             
                 |  |  |  | |  | |    /  \     |  _  \  |  |  /  |          
                  \  \/   | |  | |   /    \    | | | |  |  | /  /          
                 / \  \   | |__| |  /  /\  \   | |_| |  |  |/  /          
                |  |  |   |  __  | /  /__\  \  |    /   |      \           
                |  |  |   | |  | | |   __   |  |    \   |  |\   \          
                \     /   | |  | | |  |  |  |  | |\  \  |  | \   \       
                 \___/    |_|  |_| |__|  |__|  |_| \__\ |__|  \__/        
                                                                              
                      - O R C A' S   B I G   F R I E N D -                    
                                      &                                       
                       - I N T E G R A L  F E E D E R -                       
                                                                              
 v1 FN, 2020, v2 2021                                                         
------------------------------------------------------------------------------


Reading SHARK input file orc_h2o_b3lyp_nosmd_raman.SHARKINP.tmp ... ok
----------------------
SHARK INTEGRAL PACKAGE
----------------------

Number of atoms                             ...      3
Number of basis functions                   ...     22
Number of shells                            ...     12
Maximum angular momentum                    ...      2
Integral batch strategy                     ... SHARK/LIBINT Hybrid
RI-J (if used) integral strategy            ... SPLIT-RIJ (Revised 2003 algorithm where possible)
Printlevel                                  ...      1
Contraction scheme used                     ... SEGMENTED contraction
Coulomb Range Separation                    ... NOT USED
Exchange Range Separation                   ... NOT USED
Finite Nucleus Model                        ... NOT USED
Auxiliary Coulomb fitting basis             ... AVAILABLE
   # of basis functions in Aux-J            ...     71
   # of shells in Aux-J                     ...     25
   Maximum angular momentum in Aux-J        ...      4
Auxiliary J/K fitting basis                 ... NOT available
Auxiliary Correlation fitting basis         ... NOT available
Auxiliary 'external' fitting basis          ... NOT available
Integral threshold                          ...     2.500000e-11
Primitive cut-off                           ...     2.500000e-12
Primitive pair pre-selection threshold      ...     2.500000e-12

Calculating pre-screening integrals         ... done (  0.0 sec) Dimension = 12
Organizing shell pair data                  ... done (  0.0 sec)
Shell pair information
Total number of shell pairs                 ...        78
Shell pairs after pre-screening             ...        78
Total number of primitive shell pairs       ...       352
Primitive shell pairs kept                  ...       322
          la=0 lb=0:     36 shell pairs
          la=1 lb=0:     24 shell pairs
          la=1 lb=1:      6 shell pairs
          la=2 lb=0:      8 shell pairs
          la=2 lb=1:      3 shell pairs
          la=2 lb=2:      1 shell pairs

Calculating one electron integrals          ... done (  0.0 sec)
Calculating RI/J V-Matrix + Cholesky decomp.... done (  0.1 sec)
Calculating Nuclear repulsion               ... done (  0.0 sec) ENN=      5.068824347525 Eh

SHARK setup successfully completed in   0.4 seconds

Maximum memory used throughout the entire GTOINT-calculation: 9.5 MB


           ************************************************************
           *        Program running with 8 parallel MPI-processes     *
           *              working on a common directory               *
           ************************************************************

Diagonalization of the overlap matrix:
Smallest eigenvalue                        ... 5.354e-02
Time for diagonalization                   ...    0.000 sec
Threshold for overlap eigenvalues          ... 1.000e-08
Number of eigenvalues below threshold      ... 0
Time for construction of square roots      ...    2.206 sec
Total time needed                          ...    2.207 sec

-------------------
DFT GRID GENERATION
-------------------

General Integration Accuracy     IntAcc      ... 4.388
Radial Grid Type                 RadialGrid  ... OptM3 with GC (2021)
Angular Grid (max. ang.)         AngularGrid ... 4 (Lebedev-302)
Angular grid pruning method      GridPruning ... 4 (adaptive)
Weight generation scheme         WeightScheme... Becke
Basis function cutoff            BFCut       ... 1.0000e-11
Integration weight cutoff        WCut        ... 1.0000e-14
Angular grids for H and He will be reduced by one unit
Partially contracted basis set               ... off
Rotationally invariant grid construction     ... off

Total number of grid points                  ...    13120
Total number of batches                      ...      206
Average number of points per batch           ...       63
Average number of grid points per atom       ...     4373
Time for grid setup =    0.149 sec

--------------------
COSX GRID GENERATION
--------------------

GRIDX 1
-------
General Integration Accuracy     IntAcc      ... 3.816
Radial Grid Type                 RadialGrid  ... OptM3 with GC (2021)
Angular Grid (max. ang.)         AngularGrid ... 1 (Lebedev-50)
Angular grid pruning method      GridPruning ... 4 (adaptive)
Weight generation scheme         WeightScheme... Becke
Basis function cutoff            BFCut       ... 1.0000e-11
Integration weight cutoff        WCut        ... 1.0000e-14
Angular grids for H and He will be reduced by one unit
Partially contracted basis set               ... on
Rotationally invariant grid construction     ... off

Total number of grid points                  ...     1711
Total number of batches                      ...       28
Average number of points per batch           ...       61
Average number of grid points per atom       ...      570
UseSFitting                                  ... on

GRIDX 2
-------
General Integration Accuracy     IntAcc      ... 4.020
Radial Grid Type                 RadialGrid  ... OptM3 with GC (2021)
Angular Grid (max. ang.)         AngularGrid ... 2 (Lebedev-110)
Angular grid pruning method      GridPruning ... 4 (adaptive)
Weight generation scheme         WeightScheme... Becke
Basis function cutoff            BFCut       ... 1.0000e-11
Integration weight cutoff        WCut        ... 1.0000e-14
Angular grids for H and He will be reduced by one unit
Partially contracted basis set               ... on
Rotationally invariant grid construction     ... off

Total number of grid points                  ...     3935
Total number of batches                      ...       63
Average number of points per batch           ...       62
Average number of grid points per atom       ...     1312
UseSFitting                                  ... on

GRIDX 3
-------
General Integration Accuracy     IntAcc      ... 4.338
Radial Grid Type                 RadialGrid  ... OptM3 with GC (2021)
Angular Grid (max. ang.)         AngularGrid ... 3 (Lebedev-194)
Angular grid pruning method      GridPruning ... 4 (adaptive)
Weight generation scheme         WeightScheme... Becke
Basis function cutoff            BFCut       ... 1.0000e-11
Integration weight cutoff        WCut        ... 1.0000e-14
Angular grids for H and He will be reduced by one unit
Partially contracted basis set               ... on
Rotationally invariant grid construction     ... off

Total number of grid points                  ...     8555
Total number of batches                      ...      135
Average number of points per batch           ...       63
Average number of grid points per atom       ...     2852
UseSFitting                                  ... on

Time for X-Grid setup             =    1.467 sec

--------------
SCF ITERATIONS
--------------
ITER       Energy         Delta-E        Max-DP      RMS-DP      [F,P]     Damp
               ***  Starting incremental Fock matrix formation  ***
  0    -76.1115423974   0.000000000000 0.00717875  0.00071543  0.0197591 0.7000
  1    -76.1118695713  -0.000327173876 0.00436732  0.00050760  0.0103284 0.7000
                               ***Turning on DIIS***
  2    -76.1120043208  -0.000134749484 0.00824491  0.00107991  0.0081137 0.0000
                      *** Initiating the SOSCF procedure ***
                           *** Shutting down DIIS ***
                      *** Re-Reading the Fockian *** 
                      *** Removing any level shift *** 
ITER      Energy       Delta-E        Grad      Rot      Max-DP    RMS-DP
  3    -76.11241088  -0.0004065560  0.001093  0.001093  0.001862  0.000225
               *** Restarting incremental Fock matrix formation ***
  4    -76.11241810  -0.0000072242  0.000331  0.001610  0.001567  0.000171
  5    -76.11241521   0.0000028871  0.001131  0.001540  0.001496  0.000135
  6    -76.11241971  -0.0000044926  0.000126  0.000603  0.000404  0.000066
  7    -76.11241992  -0.0000002145  0.000073  0.000115  0.000138  0.000017
  8    -76.11241995  -0.0000000328  0.000029  0.000095  0.000060  0.000008
  9    -76.11241996  -0.0000000043  0.000008  0.000037  0.000019  0.000003
                 **** Energy Check signals convergence ****
              ***Rediagonalizing the Fockian in SOSCF/NRSCF***

               *****************************************************
               *                     SUCCESS                       *
               *           SCF CONVERGED AFTER  10 CYCLES          *
               *****************************************************

Old exchange energy                            =     -1.685212710 Eh
New exchange energy                            =     -1.685264790 Eh
Exchange energy change after final integration =     -0.000052080 Eh
Total energy after final integration           =    -76.112472039 Eh
Final COS-X integration done in                =     0.028 sec
Total Energy       :          -76.11247204 Eh           -2071.12566 eV
  Last Energy change         ...   -8.8384e-10  Tolerance :   1.0000e-08
  Last MAX-Density change    ...    8.8818e-16  Tolerance :   1.0000e-07
             **** THE GBW FILE WAS UPDATED (orc_h2o_b3lyp_nosmd_raman.gbw) ****
             **** DENSITY orc_h2o_b3lyp_nosmd_raman.scfp WAS UPDATED ****
             **** ENERGY FILE WAS UPDATED (orc_h2o_b3lyp_nosmd_raman.en.tmp) ****
             **** THE GBW FILE WAS UPDATED (orc_h2o_b3lyp_nosmd_raman.gbw) ****
             **** DENSITY orc_h2o_b3lyp_nosmd_raman.scfp WAS UPDATED ****
Total SCF time: 0 days 0 hours 0 min 6 sec 

Maximum memory used throughout the entire SCF-calculation: 43.1 MB

-------------------------   --------------------
FINAL SINGLE POINT ENERGY       -76.112472039053
-------------------------   --------------------



           ************************************************************
           *        Program running with 8 parallel MPI-processes     *
           *              working on a common directory               *
           ************************************************************
------------------------------------------------------------------------------
                         ORCA SCF GRADIENT CALCULATION
------------------------------------------------------------------------------

 ... reading COSX grid (gridx3)
Gradient of the Kohn-Sham DFT energy:
Kohn-Sham wavefunction type      ... RKS
Hartree-Fock exchange scaling    ...    0.200
Number of operators              ...    1
Number of atoms                  ...    3
Basis set dimensions             ...   22
Integral neglect threshold       ... 2.5e-11
Integral primitive cutoff        ... 2.5e-12
SHARK Integral package           ... ON

Nuc. rep. gradient       (SHARK) ... done (  0.0 sec)
HCore & Overlap gradient (SHARK) ... done (  0.0 sec)
RI-J gradient            (SHARK) ... done (  0.0 sec)
COSX-gradient                    ... done (  0.0 sec)
Exchange-correlation gradient    ... done

------------------
CARTESIAN GRADIENT
------------------

   1   O   :    0.101457662   -0.002443215   -0.000000003
   2   H   :   -0.072577244    0.070401312   -0.000000001
   3   H   :   -0.028914163   -0.067938176   -0.000000000

Difference to translation invariance:
           :   -0.0000337450    0.0000199209   -0.0000000041

Difference to rotation invariance:
           :   -0.0000000028   -0.0000000015    0.0000443694

Norm of the cartesian gradient     ...    0.1611677766
RMS gradient                       ...    0.0537225922
MAX gradient                       ...    0.1014576624

-------
TIMINGS
-------

Total SCF gradient time            ...        0.230 sec

[...]

-------
TIMINGS
-------

Total SCF time: 0 days 0 hours 0 min 1 sec 

Total time                  ....       1.249 sec
Sum of individual times     ....       1.077 sec  ( 86.2%)

Fock matrix formation       ....       0.640 sec  ( 51.3%)
  Split-RI-J                ....       0.124 sec  ( 19.4% of F)
  Chain of spheres X        ....       0.123 sec  ( 19.2% of F)
  XC integration            ....       0.239 sec  ( 37.3% of F)
    Basis function eval.    ....       0.005 sec  (  2.2% of XC)
    Density eval.           ....       0.005 sec  (  2.3% of XC)
    XC-Functional eval.     ....       0.049 sec  ( 20.3% of XC)
    XC-Potential eval.      ....       0.002 sec  (  0.7% of XC)
Diagonalization             ....       0.004 sec  (  0.3%)
Density matrix formation    ....       0.001 sec  (  0.1%)
Population analysis         ....       0.009 sec  (  0.7%)
Initial guess               ....       0.003 sec  (  0.2%)
Orbital Transformation      ....       0.000 sec  (  0.0%)
Orbital Orthonormalization  ....       0.000 sec  (  0.0%)
DIIS solution               ....       0.001 sec  (  0.1%)
SOSCF solution              ....       0.006 sec  (  0.4%)
Grid generation             ....       0.414 sec  ( 33.1%)

Maximum memory used throughout the entire SCF-calculation: 43.1 MB

-------------------------   --------------------
FINAL SINGLE POINT ENERGY       -76.384269376969
-------------------------   --------------------

                                *** OPTIMIZATION RUN DONE ***

                            ***************************************
                            *     ORCA property calculations      *
                            ***************************************

                                    ---------------------
                                    Active property flags
                                    ---------------------
   (+) Dipole Moment
   (+) Polarizability


------------------------------------------------------------------------------
                       ORCA ELECTRIC PROPERTIES CALCULATION
------------------------------------------------------------------------------

Dipole Moment Calculation                       ... on
Quadrupole Moment Calculation                   ... off
Polarizability Calculation                      ... Analytic (CP-SCF)
GBWName                                         ... orc_h2o_b3lyp_nosmd_raman.gbw
Electron density                                ... orc_h2o_b3lyp_nosmd_raman.scfp
The origin for moment calculation is the CENTER OF MASS  = (-0.371247, -0.187093  0.000000)

-------------
DIPOLE MOMENT
-------------
                                X             Y             Z
Electronic contribution:      0.08957       0.01443       0.00000
Nuclear contribution   :     -0.96393      -0.15539       0.00000
                        -----------------------------------------
Total Dipole Moment    :     -0.87436      -0.14096       0.00000
                        -----------------------------------------
Magnitude (a.u.)       :      0.88565
Magnitude (Debye)      :      2.25114



--------------------
Rotational spectrum 
--------------------
 
Rotational constants in cm-1:    27.371229    14.044433     9.281836 
Rotational constants in MHz : 820568.797330 421041.520389 278262.454074 

 Dipole components along the rotational axes: 
x,y,z [a.u.] :    -0.000113     0.885650     0.000000 
x,y,z [Debye]:    -0.000286     2.251144     0.000000 

 
Transforming and storing MO dipole integrals   ... done

                ... starting polarizability calculation

The origin for moment calculation is the CENTER OF MASS  = (-0.371247, -0.187093  0.000000)
Opening the Dipole integral file               ... (orc_h2o_b3lyp_nosmd_raman.dmo.tmp) done
Reading Dipole-MO integrals                    ... done
Solving CP-SCF equations                       ... 

           ************************************************************
           *        Program running with 8 parallel MPI-processes     *
           *              working on a common directory               *
           ************************************************************

------------------------------------------------------------------------------
                           ORCA CP-SCF CALCULATION
------------------------------------------------------------------------------

Input orbitals are from        ... orc_h2o_b3lyp_nosmd_raman.gbw
Input Perturbation             ... orc_h2o_b3lyp_nosmd_raman.cpv.tmp
Wavefunction output            ... orc_h2o_b3lyp_nosmd_raman.cpu.tmp
Perturbation mode              ... Real perturbation (singlet)
Solver                         ... POPLE
Max. number of iterations      ... 64
Convergence tolerance          ... 1.000e-04
Integral handling              ... Direct
DFT GridXC                     ... 1
COSX GridX                     ... 1
COSX IntAccX                   ... 3.067
COSX Algorithm                 ... Auto
Number of perturbations        ... 3
Number of operators            ... 1
Orbital ranges used for CP-SCF:
 Operator 0:  Orbitals   0...  4  to   5... 21
Variables per perturbation     ... 85
DFT calculation                         ... on
XC functional terms                     ... on
Exchange functional (SCF)               ... B88
Exchange functional (CP-SCF)            ... B88
   X-Alpha parameter    XAlpha (SCF)    ...  0.666667
   X-Alpha parameter    XAlpha (CP-SCF) ...  0.666667
   Becke's b parameter  XBeta (SCF)     ...  0.004200
   Becke's b parameter  XBeta (CP-SCF)  ...  0.004200
Correlation functional (SCF)            ... LYP
Correlation functional (CP-SCF)         ... LYP
 LDA part of GGA corr.  LDAOpt (SCF)    ... VWN-5
 LDA part of GGA corr.  LDAOpt (CP-SCF) ... VWN-5
Hybrid DFT                              ... on
   Exchange mixing (SCF)                ...  0.200
   Exchange mixing (CP-SCF)             ...  0.200
   GGA exch. scaling(SCF)               ...  0.720
   GGA exch. scaling (CP-SCF)           ...  0.720
   GGA corr. scaling (SCF)              ...  0.810
   GGA corr. scaling (CP-SCF)           ...  0.810

CP-SCF GRID
-----------

General Integration Accuracy     IntAcc      ... 3.467
Radial Grid Type                 RadialGrid  ... OptM3 with GC (2021)
Angular Grid (max. ang.)         AngularGrid ... 1 (Lebedev-50)
Angular grid pruning method      GridPruning ... 4 (adaptive)
Weight generation scheme         WeightScheme... Becke
Basis function cutoff            BFCut       ... 1.0000e-11
Integration weight cutoff        WCut        ... 1.0000e-14
Angular grids for H and He will be reduced by one unit
Partially contracted basis set               ... off
Rotationally invariant grid construction     ... off

Total number of grid points                  ...     1907
Total number of batches                      ...       31
Average number of points per batch           ...       61
Average number of grid points per atom       ...      636

CP-SCF GRIDX
------------

General Integration Accuracy     IntAcc      ... 3.067
Radial Grid Type                 RadialGrid  ... OptM3 with GC (2021)
Angular Grid (max. ang.)         AngularGrid ... 1 (Lebedev-50)
Angular grid pruning method      GridPruning ... 4 (adaptive)
Weight generation scheme         WeightScheme... Becke
Basis function cutoff            BFCut       ... 1.0000e-11
Integration weight cutoff        WCut        ... 1.0000e-14
Angular grids for H and He will be reduced by one unit
Partially contracted basis set               ... on
Rotationally invariant grid construction     ... off

Total number of grid points                  ...      863
Total number of batches                      ...       14
Average number of points per batch           ...       61
Average number of grid points per atom       ...      288

Recalculating density on grid  ... done
Calculating the xc-kernel      ... done
Memory available               ... 1020.9 MB
Memory needed per perturbation ...   0.1 MB
Perturbations treated per batch... 3
Number of batches              ... 1
     CP-SCF ITERATION   0:   8.8486e-01 (   0.2 sec   0/  3 done)
     CP-SCF ITERATION   1:   1.1808e-01 (   0.1 sec   0/  3 done)
     CP-SCF ITERATION   2:   1.4034e-02 (   0.1 sec   0/  3 done)
     CP-SCF ITERATION   3:   1.7135e-03 (   0.1 sec   1/  3 done)
     CP-SCF ITERATION   4:   2.9146e-04 (   0.1 sec   1/  3 done)
     CP-SCF ITERATION   5:   2.1155e-05 (   0.1 sec   3/  3 done)
                    *** THE CP-SCF HAS CONVERGED ***
done
Reading CP-SCF coefficients                    ... done
Doing the polarizability tensor                ... done
Cleaning up                                    ... done

-------------------------
THE POLARIZABILITY TENSOR
-------------------------

The raw cartesian tensor (atomic units):
    6.48608     -0.20159     -0.00000  
   -0.20159      7.69333      0.00000  
   -0.00000      0.00000      6.53035  
diagonalized tensor: 
    6.45331      6.53035      7.72610  

   -0.98704     -0.00000      0.16046  
   -0.16046     -0.00000     -0.98704  
   -0.00000      1.00000     -0.00000  

Isotropic polarizability :   6.90325

DisplAtoms
	  0         0     
	  1         1     
	  2         2     


----------------------------------------------------------------------------
                           ORCA NUMERICAL FREQUENCIES
                              (8-process run)
----------------------------------------------------------------------------

Number of atoms                ... 3
Central differences            ... used
Number of displacements        ... 18
Numerical increment            ... 5.000e-03 bohr
IR-spectrum generation         ... on
Raman-spectrum generation      ... on
Polarizability calculation     ... 1
Surface Crossing Hessian       ... off

The output will be reduced. Please look at the following files:
SCF program output             ... >orc_h2o_b3lyp_nosmd_raman.lastscf
Integral program output        ... >orc_h2o_b3lyp_nosmd_raman.lastint
Gradient program output        ... >orc_h2o_b3lyp_nosmd_raman.lastgrad
Dipole moment program output   ... >orc_h2o_b3lyp_nosmd_raman.lastmom
AutoCI program output          ... >orc_h2o_b3lyp_nosmd_raman.lastautoci

	<< Calculating on displaced geometry   6 (of  18) >>
	<< Calculating on displaced geometry   1 (of  18) >>
	<< Calculating on displaced geometry   5 (of  18) >>
	<< Calculating on displaced geometry   4 (of  18) >>
	<< Calculating on displaced geometry   3 (of  18) >>
	<< Calculating on displaced geometry   2 (of  18) >>
	<< Calculating on displaced geometry   7 (of  18) >>
	<< Calculating on displaced geometry   8 (of  18) >>
	<< Calculating on displaced geometry  11 (of  18) >>
	<< Calculating on displaced geometry   9 (of  18) >>
	<< Calculating on displaced geometry  10 (of  18) >>
	<< Calculating on displaced geometry  14 (of  18) >>
	<< Calculating on displaced geometry  12 (of  18) >>
	<< Calculating on displaced geometry  16 (of  18) >>
	<< Calculating on displaced geometry  13 (of  18) >>
	<< Calculating on displaced geometry  15 (of  18) >>
	<< Calculating on displaced geometry  17 (of  18) >>
	<< Calculating on displaced geometry  18 (of  18) >>

-----------------------
VIBRATIONAL FREQUENCIES
-----------------------

Scaling factor for frequencies =  1.000000000 (already applied!)

   0:         0.00 cm**-1
   1:         0.00 cm**-1
   2:         0.00 cm**-1
   3:         0.00 cm**-1
   4:         0.00 cm**-1
   5:         0.00 cm**-1
   6:      1665.45 cm**-1
   7:      3722.50 cm**-1
   8:      3845.51 cm**-1


------------
NORMAL MODES
------------

These modes are the cartesian displacements weighted by the diagonal matrix
M(i,i)=1/sqrt(m[i]) where m[i] is the mass of the displaced atom
Thus, these vectors are normalized but *not* orthogonal

                  0          1          2          3          4          5    
      0       0.000000   0.000000   0.000000   0.000000   0.000000   0.000000
      1       0.000000   0.000000   0.000000   0.000000   0.000000   0.000000
      2       0.000000   0.000000   0.000000   0.000000   0.000000   0.000000
      3       0.000000   0.000000   0.000000   0.000000   0.000000   0.000000
      4       0.000000   0.000000   0.000000   0.000000   0.000000   0.000000
      5       0.000000   0.000000   0.000000   0.000000   0.000000   0.000000
      6       0.000000   0.000000   0.000000   0.000000   0.000000   0.000000
      7       0.000000   0.000000   0.000000   0.000000   0.000000   0.000000
      8       0.000000   0.000000   0.000000   0.000000   0.000000   0.000000
                  6          7          8    
      0       0.070144  -0.048822  -0.011034
      1       0.011312  -0.007543   0.069891
      2       0.000000   0.000000   0.000000
      3      -0.489179   0.482905   0.508491
      4      -0.508082  -0.519771  -0.483928
      5       0.000000   0.000000   0.000000
      6      -0.624154   0.291991  -0.333364
      7       0.328541   0.639486  -0.625390
      8       0.000000   0.000000   0.000000


-----------
IR SPECTRUM
-----------

 Mode   freq       eps      Int      T**2         TX        TY        TZ
       cm**-1   L/(mol*cm) km/mol    a.u.
----------------------------------------------------------------------------
  6:   1665.45   0.019570   98.90  0.003667  (-0.059796 -0.009556  0.000000)
  7:   3722.50   0.001443    7.29  0.000121  ( 0.010876  0.001652  0.000000)
  8:   3845.51   0.011334   57.28  0.000920  ( 0.004812 -0.029943  0.000000)

* The epsilon (eps) is given for a Dirac delta lineshape.
** The dipole moment derivative (T) already includes vibrational overlap.

--------------
RAMAN SPECTRUM  
--------------

 Mode    freq (cm**-1)   Activity   Depolarization
-------------------------------------------------------------------
   6:      1665.45      3.165457      0.655653
   7:      3722.50     79.251329      0.107980
   8:      3845.51     39.481924      0.749946

The first frequency considered to be a vibration is 6
The total number of vibrations considered is 3


--------------------------
THERMOCHEMISTRY AT 298.15K
--------------------------

Temperature         ... 298.15 K
Pressure            ... 1.00 atm
Total Mass          ... 18.02 AMU

Throughout the following assumptions are being made:
  (1) The electronic state is orbitally nondegenerate
  (2) There are no thermally accessible electronically excited states
  (3) Hindered rotations indicated by low frequency modes are not
      treated as such but are treated as vibrations and this may
      cause some error
  (4) All equations used are the standard statistical mechanics
      equations for an ideal gas
  (5) All vibrations are strictly harmonic

freq.    1665.45  E(vib)   ...       0.00 
freq.    3722.50  E(vib)   ...       0.00 
freq.    3845.51  E(vib)   ...       0.00 

------------
INNER ENERGY
------------

The inner energy is: U= E(el) + E(ZPE) + E(vib) + E(rot) + E(trans)
    E(el)   - is the total energy from the electronic structure calculation
              = E(kin-el) + E(nuc-el) + E(el-el) + E(nuc-nuc)
    E(ZPE)  - the the zero temperature vibrational energy from the frequency calculation
    E(vib)  - the the finite temperature correction to E(ZPE) due to population
              of excited vibrational states
    E(rot)  - is the rotational thermal energy
    E(trans)- is the translational thermal energy

Summary of contributions to the inner energy U:
Electronic energy                ...    -76.38426938 Eh
Zero point energy                ...      0.02103538 Eh      13.20 kcal/mol
Thermal vibrational correction   ...      0.00000245 Eh       0.00 kcal/mol
Thermal rotational correction    ...      0.00141627 Eh       0.89 kcal/mol
Thermal translational correction ...      0.00141627 Eh       0.89 kcal/mol
-----------------------------------------------------------------------
Total thermal energy                    -76.36039900 Eh


Summary of corrections to the electronic energy:
(perhaps to be used in another calculation)
Total thermal correction                  0.00283500 Eh       1.78 kcal/mol
Non-thermal (ZPE) correction              0.02103538 Eh      13.20 kcal/mol
-----------------------------------------------------------------------
Total correction                          0.02387038 Eh      14.98 kcal/mol


--------
ENTHALPY
--------

The enthalpy is H = U + kB*T
                kB is Boltzmann's constant
Total free energy                 ...    -76.36039900 Eh 
Thermal Enthalpy correction       ...      0.00094421 Eh       0.59 kcal/mol
-----------------------------------------------------------------------
Total Enthalpy                    ...    -76.35945479 Eh


Note: Rotational entropy computed according to Herzberg 
Infrared and Raman Spectra, Chapter V,1, Van Nostrand Reinhold, 1945 
Point Group:  C2v, Symmetry Number:   2  
Rotational constants in cm-1:    27.371229    14.044433     9.281836 

Vibrational entropy computed according to the QRRHO of S. Grimme
Chem.Eur.J. 2012 18 9955


-------
ENTROPY
-------

The entropy contributions are T*S = T*(S(el)+S(vib)+S(rot)+S(trans))
     S(el)   - electronic entropy
     S(vib)  - vibrational entropy
     S(rot)  - rotational entropy
     S(trans)- translational entropy
The entropies will be listed as multiplied by the temperature to get
units of energy

Electronic entropy                ...      0.00000000 Eh      0.00 kcal/mol
Vibrational entropy               ...      0.00000276 Eh      0.00 kcal/mol
Rotational entropy                ...      0.00499476 Eh      3.13 kcal/mol
Translational entropy             ...      0.01644380 Eh     10.32 kcal/mol
-----------------------------------------------------------------------
Final entropy term                ...      0.02144132 Eh     13.45 kcal/mol

In case the symmetry of your molecule has not been determined correctly
or in case you have a reason to use a different symmetry number we print 
out the resulting rotational entropy values for sn=1,12 :
 --------------------------------------------------------
|  sn= 1 | S(rot)=       0.00564921 Eh      3.54 kcal/mol|
|  sn= 2 | S(rot)=       0.00499476 Eh      3.13 kcal/mol|
|  sn= 3 | S(rot)=       0.00461193 Eh      2.89 kcal/mol|
|  sn= 4 | S(rot)=       0.00434030 Eh      2.72 kcal/mol|
|  sn= 5 | S(rot)=       0.00412961 Eh      2.59 kcal/mol|
|  sn= 6 | S(rot)=       0.00395747 Eh      2.48 kcal/mol|
|  sn= 7 | S(rot)=       0.00381192 Eh      2.39 kcal/mol|
|  sn= 8 | S(rot)=       0.00368585 Eh      2.31 kcal/mol|
|  sn= 9 | S(rot)=       0.00357464 Eh      2.24 kcal/mol|
|  sn=10 | S(rot)=       0.00347516 Eh      2.18 kcal/mol|
|  sn=11 | S(rot)=       0.00338517 Eh      2.12 kcal/mol|
|  sn=12 | S(rot)=       0.00330301 Eh      2.07 kcal/mol|
 --------------------------------------------------------


-------------------
GIBBS FREE ENERGY
-------------------

The Gibbs free energy is G = H - T*S

Total enthalpy                    ...    -76.35945479 Eh 
Total entropy correction          ...     -0.02144132 Eh    -13.45 kcal/mol
-----------------------------------------------------------------------
Final Gibbs free energy         ...    -76.38089611 Eh

For completeness - the Gibbs free energy minus the electronic energy
G-E(el)                           ...      0.00337326 Eh      2.12 kcal/mol



Timings for individual modules:

Sum of individual times         ...      146.930 sec (=   2.449 min)
GTO integral calculation        ...       19.585 sec (=   0.326 min)  13.3 %
SCF iterations                  ...       83.177 sec (=   1.386 min)  56.6 %
Solution of CP-SCF eqns.        ...        2.090 sec (=   0.035 min)   1.4 %
SCF Gradient evaluation         ...       18.948 sec (=   0.316 min)  12.9 %
Geometry relaxation             ...        0.249 sec (=   0.004 min)   0.2 %
Numerical frequency calculation ...       22.880 sec (=   0.381 min)  15.6 %
                             ****ORCA TERMINATED NORMALLY****
TOTAL RUN TIME: 0 days 0 hours 2 minutes 43 seconds 293 msec
