/home/lever046/lever046/psi4conda/etc/profile.d/conda.cshnconda: No such file or directory.
----- GAMESS execution script 'rungms' -----
This job is running on host acn91
under operating system Linux at Wed Apr 24 12:10:10 CDT 2024
SLURM has assigned the following compute nodes to this run:
acn91
Available scratch disk space (Kbyte units) at beginning of the job is
Filesystem           1K-blocks      Used Available Use% Mounted on
/dev/mapper/job_163404676_crypt
                       9982804     36892   9929528   1% /tmp
GAMESS temporary binary files will be written to /tmp
GAMESS supplementary output files will be written to /scratch.global/lever046/gamess/163404676
Copying input file gms_h2o_b3lyp_nosmd_opt.inp to your run's scratch directory...
cp gms_h2o_b3lyp_nosmd_opt.inp /tmp/gms_h2o_b3lyp_nosmd_opt.F05
unset echo
setenv I_MPI_WAIT_MODE enable
setenv I_MPI_PIN disable
setenv I_MPI_DEBUG 0
setenv I_MPI_STATS 0
setenv I_MPI_DAT_LIBRARY libdat2.so
setenv I_MPI_SHM_LMT shm
unset echo
MPI kickoff will run GAMESS on 8 cores in 1 nodes.
The binary to be executed is /common/software/install/migrated/gamess/october_2019/gamess.00.x
MPI will run 8 compute processes and 8 data servers,
    placing 8 of each process type onto each node.
The scratch disk space on each node is /tmp, with free space
Filesystem           1K-blocks      Used Available Use% Mounted on
/dev/mapper/job_163404676_crypt
                       9982804     36904   9929516   1% /tmp
setenv I_MPI_HYDRA_ENV all
setenv I_MPI_PERHOST 16
unset echo
if ( impi == impi ) then
mpirun -hostfile /tmp/gms_h2o_b3lyp_nosmd_opt.processes.mpd -np 16 /common/software/install/migrated/gamess/october_2019/gamess.00.x
srun: Job 163404676 step creation temporarily disabled, retrying (Requested nodes are busy)
srun: Step created for job 163404676
          ******************************************************
          *         GAMESS VERSION = 30 SEP 2019 (R2)          *
          *             FROM IOWA STATE UNIVERSITY             *
          * M.W.SCHMIDT, K.K.BALDRIDGE, J.A.BOATZ, S.T.ELBERT, *
          *   M.S.GORDON, J.H.JENSEN, S.KOSEKI, N.MATSUNAGA,   *
          *          K.A.NGUYEN, S.J.SU, T.L.WINDUS,           *
          *       TOGETHER WITH M.DUPUIS, J.A.MONTGOMERY       *
          *         J.COMPUT.CHEM.  14, 1347-1363(1993)        *
          **************** 64 BIT INTEL VERSION ****************

  SINCE 1993, STUDENTS AND POSTDOCS WORKING AT IOWA STATE UNIVERSITY
  AND ALSO IN THEIR VARIOUS JOBS AFTER LEAVING ISU HAVE MADE IMPORTANT
  CONTRIBUTIONS TO THE CODE:
     IVANA ADAMOVIC, CHRISTINE AIKENS, YURI ALEXEEV, POOJA ARORA,
     ANDREY ASADCHEV, ROB BELL, PRADIPTA BANDYOPADHYAY, JONATHAN BENTZ,
     COLLEEN BERTONI, BRETT BODE, KURT BRORSEN, CALEB CARLIN, GALINA CHABAN,
     WEI CHEN, CHEOL HO CHOI, PAUL DAY, ALBERT DEFUSCO, NUWAN DESILVA,
     TIM DUDLEY, DMITRI FEDOROV, ALEX FINDLATER, GRAHAM FLETCHER, 
     MARK FREITAG, KURT GLAESEMANN, EMILIE B GUIDEZ, ANASTASIA GUNINA, 
     DAN KEMP, SAROM SOK LEANG, GRANT MERRILL,
     NORIYUKI MINEZAWA, JONATHAN MULLIN,
     TAKESHI NAGATA, SEAN NEDD, HEATHER NETZLOFF, BOSILJKA NJEGIC, RYAN OLSON,
     MIKE PAK, BUU PHAM, DAVID POOLE,
     SPENCER PRUITT, LUKE ROSKOP, TOSAPORN SATTASATHUCHANA,
     JIM SHOEMAKER, LYUDMILA SLIPCHENKO,
     TONY SMITH, JIE SONG, TETSUYA TAKETSUGU, SIMON WEBB,
     JORGE LUIS GALVEZ VALLEJO, PENG XU, SOOHAENG YOO,
     FEDERICO ZAHARIEV

  ADDITIONAL CODE HAS BEEN PROVIDED BY COLLABORATORS IN OTHER GROUPS:
     IOWA STATE UNIVERSITY:
          JOE IVANIC, AARON WEST, LAIMUTIS BYTAUTAS, KLAUS RUEDENBERG
     UNIVERSITY OF TOKYO: KIMIHIKO HIRAO, TAKAHITO NAKAJIMA,
          TAKAO TSUNEDA, MUNEAKI KAMIYA, SUSUMU YANAGISAWA,
          KIYOSHI YAGI, MAHITO CHIBA, SEIKEN TOKURA, NAOAKI KAWAKAMI
     UNIVERSITY OF AARHUS: FRANK JENSEN
     UNIVERSITY OF IOWA: VISVALDAS KAIRYS, HUI LI
     NATIONAL INST. OF STANDARDS AND TECHNOLOGY: WALT STEVENS, DAVID GARMER
     UNIVERSITY OF PISA: BENEDETTA MENNUCCI, JACOPO TOMASI
     UNIVERSITY OF MEMPHIS: HENRY KURTZ, PRAKASHAN KORAMBATH
     UNIVERSITY OF ALBERTA: TOBY ZENG, MARIUSZ KLOBUKOWSKI
     UNIVERSITY OF NEW ENGLAND: MARK SPACKMAN
     MIE UNIVERSITY: HIROAKI UMEDA
     NAT. INST. OF ADVANCED INDUSTRIAL SCIENCE AND TECHNOLOGY: KAZUO KITAURA
     MICHIGAN STATE UNIVERSITY:
          KAROL KOWALSKI, MARTA WLOCH, JEFFREY GOUR, JESSE LUTZ,
          WEI LI, JUN SHEN, J. EMILIANO DEUSTUA, PIOTR PIECUCH
     UNIVERSITY OF MINNESOTA:
          ANDREW SAND, PRACHI SHARMA, YINAN SHU
     UNIVERSITY OF SILESIA: MONIKA MUSIAL, STANISLAW KUCHARSKI
     FACULTES UNIVERSITAIRES NOTRE-DAME DE LA PAIX:
          OLIVIER QUINET, BENOIT CHAMPAGNE
     UNIVERSITY OF CALIFORNIA - SANTA BARBARA: BERNARD KIRTMAN
     INSTITUTE FOR MOLECULAR SCIENCE:
          KAZUYA ISHIMURA, MICHIO KATOUDA, AND SHIGERU NAGASE
     UNIVERSITY OF NOTRE DAME: ANNA POMOGAEVA, DAN CHIPMAN
     KYUSHU UNIVERSITY:
          HARUYUKI NAKANO,
          FENG LONG GU, JACEK KORCHOWIEC, MARCIN MAKOWSKI, AND YURIKO AOKI,
          HIROTOSHI MORI AND EISAKU MIYOSHI
     PENNSYLVANIA STATE UNIVERSITY:
          TZVETELIN IORDANOV, CHET SWALINA, JONATHAN SKONE,
          SHARON HAMMES-SCHIFFER
     WASEDA UNIVERSITY:
          MASATO KOBAYASHI, TOMOKO AKAMA, TSUGUKI TOUMA,
          TAKESHI YOSHIKAWA, YASUHIRO IKABATA, JUNJI SEINO,
          YUYA NAKAJIMA, HIROMI NAKAI
     NANJING UNIVERSITY: SHUHUA LI
     UNIVERSITY OF NEBRASKA:
          PEIFENG SU, DEJUN SI, NANDUN THELLAMUREGE, YALI WANG, HUI LI
     UNIVERSITY OF ZURICH: ROBERTO PEVERATI, KIM BALDRIDGE
     N. COPERNICUS UNIVERSITY AND JACKSON STATE UNIVERSITY:
          MARIA BARYSZ
     UNIVERSITY OF COPENHAGEN: Jimmy Kromann, CASPER STEINMANN
     TOKYO INSTITUTE OF TECHNOLOGY: HIROYA NAKATA
     NAGOYA UNIVERSITY: YOSHIO NISHIMOTO, STEPHAN IRLE
     MOSCOW STATE UNIVERSITY: VLADIMIR MIRONOV
     A.N.NESMEYANOV INSTITUTE OF ORGANOELEMENT COMPOUNDS OF RUSSIAN ACADEMY OF SCIENCES:
          IGOR S. GERASIMOV
     JOHANNES KEPLER UNIVERSITY LINZ:
          CHRISTIAN FRIEDL


 PARALLEL VERSION RUNNING ON        8 PROCESSORS IN        1 NODES.

 EXECUTION OF GAMESS BEGUN Wed Apr 24 12:10:13 2024

            ECHO OF THE FIRST FEW INPUT CARDS -
 INPUT CARD> $BASIS GBASIS=N31 NGAUSS=6 NPFUNC=1 DIFFSP=.t. $END                            
 INPUT CARD> $CONTRL SCFTYP=RHF RUNTYP=OPTIMIZE ICHARG=0 MULT=1 MAXIT=200 $END              
 INPUT CARD> $CONTRL DFTTYP=B3LYP $END                                                      
 INPUT CARD> $FORCE METHOD=SEMINUM $END                                                     
 INPUT CARD> $SCF DIRSCF=.t. DAMP=.t. $END                                                  
 INPUT CARD> $STATPT HSSEND=.t. NSTEP=200 $END                                              
 INPUT CARD> $SYSTEM MWORDS=100 $END                                                        
 INPUT CARD> $DATA                                                                          
 INPUT CARD> Title                                                                          
 INPUT CARD> C1                                                                             
 INPUT CARD>    O   8.0    2.2186344E-01  6.4623884E-02  0.0000000E+00                      
 INPUT CARD>    H   1.0   -1.0869454E+00  1.3371949E+00  0.0000000E+00                      
 INPUT CARD>    H   1.0   -6.8796211E-01 -1.8541860E+00  0.0000000E+00                      
 INPUT CARD> $END                                                                           
 INPUT CARD>                                                                                
 INPUT CARD>                                                                                
  100000000 WORDS OF MEMORY AVAILABLE

     BASIS OPTIONS
     -------------
     GBASIS=N31          IGAUSS=       6      POLAR=POPN31  
     NDFUNC=       0     NFFUNC=       0     DIFFSP=       T
     NPFUNC=       1      DIFFS=       F     BASNAM=        


     RUN TITLE
     ---------
  Title                                                                          

 THE POINT GROUP OF THE MOLECULE IS C1      
 THE ORDER OF THE PRINCIPAL AXIS IS     0

 ATOM      ATOMIC                      COORDINATES (BOHR)
           CHARGE         X                   Y                   Z
 O           8.0     0.4192611083        0.1221214330        0.0000000000
 H           1.0    -2.0540289696        2.5269319532        0.0000000000
 H           1.0    -1.3000598778       -3.5039034703        0.0000000000

          INTERNUCLEAR DISTANCES (ANGS.)
          ------------------------------

                1 O          2 H          3 H     

   1 O       0.0000000    1.8254910 *  2.1235852 *
   2 H       1.8254910 *  0.0000000    3.2162245  
   3 H       2.1235852 *  3.2162245    0.0000000  

  * ... LESS THAN  3.000


     ATOMIC BASIS SET
     ----------------
 THE CONTRACTED PRIMITIVE FUNCTIONS HAVE BEEN UNNORMALIZED
 THE CONTRACTED BASIS FUNCTIONS ARE NOW NORMALIZED TO UNITY

  SHELL TYPE  PRIMITIVE        EXPONENT          CONTRACTION COEFFICIENT(S)

 O         

      1   S       1          5484.6716600    0.001831074430
      1   S       2           825.2349460    0.013950172200
      1   S       3           188.0469580    0.068445078098
      1   S       4            52.9645000    0.232714335992
      1   S       5            16.8975704    0.470192897984
      1   S       6             5.7996353    0.358520852987

      2   L       7            15.5396162   -0.110777549525    0.070874268231
      2   L       8             3.5999336   -0.148026262701    0.339752839147
      2   L       9             1.0137618    1.130767015354    0.727158577316

      3   L      10             0.2700058    1.000000000000    1.000000000000

      4   L      11             0.0845000    1.000000000000    1.000000000000

 H         

      5   S      12            18.7311370    0.033494604338
      5   S      13             2.8253944    0.234726953484
      5   S      14             0.6401217    0.813757326146

      6   S      15             0.1612778    1.000000000000

      7   P      16             1.1000000    1.000000000000

 H         

      8   S      17            18.7311370    0.033494604338
      8   S      18             2.8253944    0.234726953484
      8   S      19             0.6401217    0.813757326146

      9   S      20             0.1612778    1.000000000000

     10   P      21             1.1000000    1.000000000000

 TOTAL NUMBER OF BASIS SET SHELLS             =   10
 NUMBER OF CARTESIAN GAUSSIAN BASIS FUNCTIONS =   23
 NUMBER OF ELECTRONS                          =   10
 CHARGE OF MOLECULE                           =    0
 SPIN MULTIPLICITY                            =    1
 NUMBER OF OCCUPIED ORBITALS (ALPHA)          =    5
 NUMBER OF OCCUPIED ORBITALS (BETA )          =    5
 TOTAL NUMBER OF ATOMS                        =    3
 THE NUCLEAR REPULSION ENERGY IS        4.4771148018

 SELECTED MURRAY-HANDY-LAMING RADIAL GRID

 LEGACY BECKE'S FUZZY CELL METHOD

 SELECTED ORIGINAL BECKE'S PARTITION FUNCTION

     LEBEDEV GRID-BASED DFT OPTIONS
     ------------------------------
     DFTTYP=B3LYP   
     NRAD  =      96     NLEB  =     302
     NRAD0 =      24     NLEB0 =     110
     SWOFF =    5.00E-03 (PURE SCF -> DFT)
     SWITCH=    3.00E-04 (COARSE -> TIGHT GRID)
     THRESH=    0.00E+00 GTHRE=    1.00E+00

 GRIMME'S EMPIRICAL DISPERSION CORRECTION= F

     $CONTRL OPTIONS
     ---------------
 SCFTYP=RHF          RUNTYP=OPTIMIZE     EXETYP=RUN     
 MPLEVL=       0     CITYP =NONE         CCTYP =NONE         VBTYP =NONE    
 DFTTYP=B3LYP        TDDFT =NONE    
 MULT  =       1     ICHARG=       0     NZVAR =       0     COORD =UNIQUE  
 PP    =NONE         RELWFN=NONE         LOCAL =NONE         NUMGRD=       F
 ISPHER=      -1     NOSYM =       0     MAXIT =     200     UNITS =ANGS    
 PLTORB=       F     MOLPLT=       F     AIMPAC=       F     FRIEND=        
 NPRINT=       7     IREST =       0     GEOM  =INPUT   
 NORMF =       0     NORMP =       0     ITOL  =      20     ICUT  =       9
 INTTYP=BEST         GRDTYP=BEST         QMTTOL= 1.0E-06

     $SYSTEM OPTIONS
     ---------------
  REPLICATED MEMORY=   100000000 WORDS (ON EVERY NODE).
 DISTRIBUTED MEMDDI=           0 MILLION WORDS IN AGGREGATE,
 MEMDDI DISTRIBUTED OVER   8 PROCESSORS IS           0 WORDS/PROCESSOR.
 TOTAL MEMORY REQUESTED ON EACH PROCESSOR=   100000000 WORDS.
 TIMLIM=      525600.00 MINUTES, OR     365.0 DAYS.
 PARALL= T  BALTYP=  DLB     KDIAG=    0  COREFL= F
 MXSEQ2=     300 MXSEQ3=     150  mem10=         0

          ----------------
          PROPERTIES INPUT
          ----------------

     MOMENTS            FIELD           POTENTIAL          DENSITY
 IEMOM =       1   IEFLD =       0   IEPOT =       0   IEDEN =       0
 WHERE =COMASS     WHERE =NUCLEI     WHERE =NUCLEI     WHERE =NUCLEI  
 OUTPUT=BOTH       OUTPUT=BOTH       OUTPUT=BOTH       OUTPUT=BOTH    
 IEMINT=       0   IEFINT=       0                     IEDINT=       0
                                                       MORB  =       0
          EXTRAPOLATION IN EFFECT
          DAMPING IN EFFECT
          DIIS IN EFFECT
 ORBITAL PRINTING OPTION: NPREO=     1    23     2     1

     -------------------------------
     INTEGRAL TRANSFORMATION OPTIONS
     -------------------------------
     NWORD  =            0
     CUTOFF = 1.0E-09     MPTRAN =       0
     DIRTRF =       T     AOINTS =DUP     

          ----------------------
          INTEGRAL INPUT OPTIONS
          ----------------------
 NOPK  =       1 NORDER=       0 SCHWRZ=       T

     ------------------------------------------
     THE POINT GROUP IS C1 , NAXIS= 0, ORDER= 1
     ------------------------------------------

     DIMENSIONS OF THE SYMMETRY SUBSPACES ARE
 A   =   23

 ..... DONE SETTING UP THE RUN .....
 CPU     0: STEP CPU TIME=     0.02 TOTAL CPU TIME=          0.0 (      0.0 MIN)
 TOTAL WALL CLOCK TIME=          0.1 SECONDS, CPU UTILIZATION IS    50.00%


          -----------------------------
          STATIONARY POINT LOCATION RUN
          -----------------------------

 OBTAINING INITIAL HESSIAN, HESS=GUESS   
 CARTESIAN COORDINATE OPTIMIZATION USING BADGER'S RULE FORCE CONSTANT GUESS

          PARAMETERS CONTROLLING GEOMETRY SEARCH ARE
          METHOD =QA                  UPHESS =BFGS    
          NNEG   =         0          NFRZ   =         0
          NSTEP  =       200          IFOLOW =         1
          HESS   =GUESS               RESTAR =         F
          IHREP  =         0          HSSEND =         T
          NPRT   =         0          NPUN   =         0
          OPTTOL = 1.000E-04          RMIN   = 1.500E-03
          RMAX   = 1.000E-01          RLIM   = 7.000E-02
          DXMAX  = 3.000E-01          PURIFY =         F
          MOVIE  =         F          TRUPD  =         T
          TRMAX  = 5.000E-01          TRMIN  = 5.000E-02
          ITBMAT =         5          STPT   =         F
          STSTEP = 1.000E-02          PROJCT=          T

 BEGINNING GEOMETRY SEARCH POINT NSERCH=   0 ...

 COORDINATES OF ALL ATOMS ARE (ANGS)
   ATOM   CHARGE       X              Y              Z
 ------------------------------------------------------------
 O           8.0   0.2218634400   0.0646238840   0.0000000000
 H           1.0  -1.0869454000   1.3371949000   0.0000000000
 H           1.0  -0.6879621100  -1.8541860000   0.0000000000

          ********************
          1 ELECTRON INTEGRALS
          ********************
 ...... END OF ONE-ELECTRON INTEGRALS ......
 CPU     0: STEP CPU TIME=     0.02 TOTAL CPU TIME=          0.1 (      0.0 MIN)
 TOTAL WALL CLOCK TIME=          0.1 SECONDS, CPU UTILIZATION IS    66.67%

          -------------
          GUESS OPTIONS
          -------------
          GUESS =HUCKEL            NORB  =       0          NORDER=       0
          MIX   =       F          PRTMO =       F          PUNMO =       F
          TOLZ  = 1.0E-08          TOLE  = 1.0E-05
          SYMDEN=       F          PURIFY=       F

 INITIAL GUESS ORBITALS GENERATED BY HUCKEL   ROUTINE.
 HUCKEL GUESS REQUIRES      6316 WORDS.

 SYMMETRIES FOR INITIAL GUESS ORBITALS FOLLOW.   BOTH SET(S).
     5 ORBITALS ARE OCCUPIED (    1 CORE ORBITALS).
     2=A        3=A        4=A        5=A        6=A        7=A        8=A   
     9=A       10=A       11=A       12=A       13=A       14=A       15=A   
 ...... END OF INITIAL ORBITAL SELECTION ......
 CPU     0: STEP CPU TIME=     0.01 TOTAL CPU TIME=          0.1 (      0.0 MIN)
 TOTAL WALL CLOCK TIME=          0.1 SECONDS, CPU UTILIZATION IS    63.64%

                    ----------------------
                    AO INTEGRAL TECHNOLOGY
                    ----------------------
     S,P,L SHELL ROTATED AXIS INTEGRALS, REPROGRAMMED BY
        KAZUYA ISHIMURA (IMS) AND JOSE SIERRA (SYNSTAR).
     S,P,D,L SHELL ROTATED AXIS INTEGRALS PROGRAMMED BY
        KAZUYA ISHIMURA (INSTITUTE FOR MOLECULAR SCIENCE).
     S,P,D,F,G SHELL TO TOTAL QUARTET ANGULAR MOMENTUM SUM 5,
        ERIC PROGRAM BY GRAHAM FLETCHER (ELORET AND NASA ADVANCED
        SUPERCOMPUTING DIVISION, AMES RESEARCH CENTER).
     S,P,D,F,G,L SHELL GENERAL RYS QUADRATURE PROGRAMMED BY
        MICHEL DUPUIS (PACIFIC NORTHWEST NATIONAL LABORATORY).

          --------------------
          2 ELECTRON INTEGRALS
          --------------------

 DIRECT SCF METHOD SKIPS INTEGRAL STORAGE ON DISK.
 DIRECT TRANSFORMATION SKIPS AO INTEGRAL STORAGE ON DISK.
  ...... END OF TWO-ELECTRON INTEGRALS .....
 CPU     0: STEP CPU TIME=     0.01 TOTAL CPU TIME=          0.1 (      0.0 MIN)
 TOTAL WALL CLOCK TIME=          0.1 SECONDS, CPU UTILIZATION IS    66.67%

          --------------------------
             R-B3LYP SCF CALCULATION
          --------------------------

     NUCLEAR ENERGY =         4.4771148018
     MAXIT =  200     NPUNCH=    2
     EXTRAP=T  DAMP=T  SHIFT=F  RSTRCT=F  DIIS=T  DEM=F  SOSCF=F
         DENSITY MATRIX CONVERGENCE THRESHOLD=  2.00E-05
     COARSE -> FINE DFT GRID SWITCH THRESHOLD=  3.00E-04 (SWITCH IN $DFT)
                   HF -> DFT SWITCH THRESHOLD=  5.00E-03 (SWOFF IN $DFT)
     MEMORY REQUIRED FOR RHF ITERS=    202777 WORDS.

 DIRECT SCF CALCULATION, SCHWRZ=T   FDIFF=T,  DIRTHR=  0.00E+00 NITDIR=10
 SCHWARZ INEQUALITY OVERHEAD:       276 INTEGRALS, T=        0.00

 DFT CODE IS SWITCHING FROM THE FINE GRID NRAD= 96,  NLEB=  302
                      TO THE COARSE GRID NRAD0= 24, NLEB0=  110

     EXCHANGE FUNCTIONAL   =B88&HFX   
     CORRELATION FUNCTIONAL=LYP88&VWN5
     DFT THRESHOLD         =.460E-07
     GRID CHANGE THRESHOLD =.300E-03
 FOR AN EULER-MACLAURIN QUADRATURE USING  96 RADIAL POINTS:
 SMALLEST GAUSSIAN PRIMITIVE EXPONENT=        0.0845000000 OF TYPE -P-
 ON ATOM NUMBER   1 HAS RADIAL NORMALIZATION=  1.000000
  LARGEST GAUSSIAN PRIMITIVE EXPONENT=     5484.6716600000 OF TYPE -S-
 ON ATOM NUMBER   1 HAS RADIAL NORMALIZATION=  1.000000
 DFT IS SWITCHED OFF, PERFORMING PURE SCF UNTIL SWOFF THRESHOLD IS REACHED.

                                                                                                                   NONZERO     BLOCKS
 ITER EX DEM     TOTAL ENERGY        E CHANGE  DENSITY CHANGE    DIIS ERROR      VIR. SHIFT       DAMPING        INTEGRALS    SKIPPED
          * * *   INITIATING DIIS PROCEDURE   * * *
   1  0  0      -75.2348768558   -75.2348768558   0.547517264   0.452701146     0.000000000     1.000000000          18901         35
   2  1  0      -75.0411112086     0.1937656472   0.432561382   0.686367776     0.000000000     1.000000000          18912         40
   3  2  0      -75.5001369216    -0.4590257130   0.139869963   0.203242972     0.000000000     1.000000000          18903         43
   4  3  0      -75.5792499238    -0.0791130021   0.017956192   0.014439027     0.000000000     1.000000000          18768         61
   5  4  0      -75.5797739756    -0.0005240519   0.012970447   0.018519231     0.000000000     1.000000000          18654         83
   6  5  0      -75.5800816824    -0.0003077067   0.003560065   0.003279686     0.000000000     1.000000000          18500        106
 CONVERGED TO SWOFF, SO DFT CALCULATION IS NOW SWITCHED ON.
          * * *   INITIATING DIIS PROCEDURE   * * *
   7  6  0      -76.0288052801    -0.4487235978   0.069929198   0.088215178          18890         41
   8  7  0      -76.0409082177    -0.0121029376   0.114913292   0.031952907          18847         50
   9  8  0      -76.0017615130     0.0391467048   0.074817074   0.142930208          18740         65
  10  9  0      -76.0411689300    -0.0394074170   0.025448726   0.031075245          18738         66
  11 10  0      -76.0430824034    -0.0019134735   0.005906367   0.004784130          18553         89
  12 11  0      -76.0431345144    -0.0000521110   0.002473687   0.002806980          18205        123
  13 12  0      -76.0431487203    -0.0000142059   0.000191951   0.000076846          17937        152
 DFT CODE IS SWITCHING BACK TO THE FINE GRID
          * * *   INITIATING DIIS PROCEDURE   * * *
  14 13  0      -76.0427245309     0.0004241894   0.001422360   0.000639196          18865         45
  15 14  0      -76.0427246480    -0.0000001170   0.001755909   0.000860642          17942        158
  16 15  0      -76.0427220190     0.0000026290   0.000997779   0.001371098          17809        180
  17 16  0      -76.0427256222    -0.0000036033   0.000341060   0.000245817          17836        174
  18 17  0      -76.0427258660    -0.0000002438   0.000044792   0.000045750          17413        221
  19 18  0      -76.0427258700    -0.0000000040   0.000004084   0.000002290          16875        305
  20 19  0      -76.0427258700    -0.0000000000   0.000001223   0.000001482          16336        378

          -----------------
          DENSITY CONVERGED
          -----------------
     TIME TO FORM FOCK OPERATORS=       0.3 SECONDS (       0.0 SEC/ITER)
     FOCK TIME ON FIRST ITERATION=       0.0, LAST ITERATION=       0.0
     TIME TO SOLVE SCF EQUATIONS=       0.2 SECONDS (       0.0 SEC/ITER)

 FINAL R-B3LYP ENERGY IS      -76.0427258700 AFTER  20 ITERATIONS
 DFT EXCHANGE + CORRELATION ENERGY =        -7.1650534771
 TOTAL ELECTRON NUMBER             =         9.9999994003

          ------------
          EIGENVECTORS
          ------------

                      1          2          3          4          5
                  -19.2330    -0.8879    -0.3520    -0.3244    -0.2993
                     A          A          A          A          A   
    1  O  1  S    0.995150  -0.233227   0.017539  -0.024775   0.000000
    2  O  1  S    0.027266   0.541954  -0.047230   0.064174   0.000000
    3  O  1  X   -0.000609  -0.023741  -0.261745   0.425153   0.000000
    4  O  1  Y    0.000046   0.004113   0.411396   0.253918   0.000000
    5  O  1  Z    0.000000   0.000000   0.000000   0.000000   0.674638
    6  O  1  S   -0.012311   0.536165  -0.056732   0.092798   0.000000
    7  O  1  X    0.000476  -0.019385  -0.159159   0.257362   0.000000
    8  O  1  Y   -0.000023   0.003860   0.252972   0.155677   0.000000
    9  O  1  Z    0.000000   0.000000   0.000000   0.000000   0.402150
   10  O  1  S    0.004939   0.001489  -0.005978  -0.027046   0.000000
   11  O  1  X   -0.000623   0.005160  -0.033356   0.079676   0.000000
   12  O  1  Y   -0.000077  -0.001301   0.055508   0.048833   0.000000
   13  O  1  Z    0.000000   0.000000   0.000000   0.000000   0.124311
   14  H  2  S    0.000291   0.024402   0.237981  -0.089540   0.000000
   15  H  2  S   -0.000704   0.020689   0.319160  -0.122341   0.000000
   16  H  2  X    0.000311   0.001868   0.004426   0.001687   0.000000
   17  H  2  Y   -0.000276  -0.001923  -0.003383   0.003013   0.000000
   18  H  2  Z    0.000000   0.000000   0.000000   0.000000   0.004451
   19  H  3  S    0.000070   0.012722  -0.096965  -0.234355   0.000000
   20  H  3  S   -0.000632   0.013919  -0.134123  -0.335369   0.000000
   21  H  3  X    0.000054   0.000784  -0.002379   0.000291   0.000000
   22  H  3  Y    0.000075   0.001952  -0.001194  -0.002533   0.000000
   23  H  3  Z    0.000000   0.000000   0.000000   0.000000   0.002648

                      6          7          8          9         10
                   -0.1923    -0.1468     0.1519     0.1649     0.2050
                     A          A          A          A          A   
    1  O  1  S    0.023226   0.019759   0.059524   0.000000  -0.010616
    2  O  1  S   -0.056482  -0.044637  -0.098562   0.000000   0.019102
    3  O  1  X    0.358255   0.272247  -0.177370   0.000000  -0.010663
    4  O  1  Y    0.277031  -0.385969  -0.020706   0.000000  -0.204853
    5  O  1  Z    0.000000   0.000000   0.000000  -0.262213   0.000000
    6  O  1  S   -0.113555  -0.118643  -0.726419   0.000000   0.125312
    7  O  1  X    0.238709   0.200737  -0.303277   0.000000   0.003177
    8  O  1  Y    0.184165  -0.285952  -0.039327   0.000000  -0.463974
    9  O  1  Z    0.000000   0.000000   0.000000  -0.454050   0.000000
   10  O  1  S    0.030812   0.031417   1.271599   0.000000  -0.166654
   11  O  1  X    0.074056   0.052272   0.693118   0.000000  -0.100804
   12  O  1  Y    0.054965  -0.069464   0.133098   0.000000   1.616418
   13  O  1  Z    0.000000   0.000000   0.000000   1.199055   0.000000
   14  H  2  S    0.090566   0.308286  -0.051226   0.000000  -0.047586
   15  H  2  S    0.176656   0.641389  -0.161110   0.000000  -0.519363
   16  H  2  X    0.000139  -0.010283   0.007809   0.000000   0.007606
   17  H  2  Y    0.003949   0.009067   0.000482   0.000000   0.011738
   18  H  2  Z    0.000000   0.000000   0.000000   0.012864   0.000000
   19  H  3  S    0.307805  -0.102287  -0.047321   0.000000   0.064707
   20  H  3  S    0.572381  -0.198994  -0.095902   0.000000   0.641813
   21  H  3  X   -0.003635   0.003603   0.008138   0.000000  -0.010051
   22  H  3  Y   -0.009075   0.003636   0.004128   0.000000   0.000252
   23  H  3  Z    0.000000   0.000000   0.000000   0.012476   0.000000

                     11         12         13         14         15
                    0.2080     0.7761     0.7972     1.0995     1.1304
                     A          A          A          A          A   
    1  O  1  S    0.043848  -0.010081  -0.001484  -0.000094  -0.003909
    2  O  1  S   -0.041662   0.178555   0.014429   0.046870   0.078480
    3  O  1  X    0.153274  -0.245930  -0.012960  -0.406969  -0.811033
    4  O  1  Y    0.023014   0.205561  -0.139410  -0.836342   0.340641
    5  O  1  Z    0.000000   0.000000   0.000000   0.000000   0.000000
    6  O  1  S   -0.754245  -0.161535   0.084944  -0.127722  -0.166154
    7  O  1  X    0.340163   0.381323   0.028068   0.636962   1.209579
    8  O  1  Y    0.013989  -0.319827   0.244848   1.265909  -0.481155
    9  O  1  Z    0.000000   0.000000   0.000000   0.000000   0.000000
   10  O  1  S    1.588224  -0.485727  -0.361529   0.140059   0.359924
   11  O  1  X   -1.329850   0.171868   0.113308  -0.336324  -0.759733
   12  O  1  Y    0.122727  -0.081725   0.222441  -0.776543   0.361580
   13  O  1  Z    0.000000   0.000000   0.000000   0.000000   0.000000
   14  H  2  S   -0.108420  -1.166570   0.190122  -0.178255   0.557423
   15  H  2  S   -0.896148   1.519876  -0.181116   0.192746  -0.733197
   16  H  2  X   -0.005285  -0.060129   0.019109   0.044028  -0.099925
   17  H  2  Y   -0.009915   0.064223   0.005865  -0.027138   0.106313
   18  H  2  Z    0.000000   0.000000   0.000000   0.000000   0.000000
   19  H  3  S   -0.074553  -0.221513  -1.272883   0.202400   0.017208
   20  H  3  S   -0.517577   0.292595   1.446133  -0.364963  -0.066721
   21  H  3  X   -0.009266   0.007574  -0.024150  -0.059075  -0.017450
   22  H  3  Y    0.015433  -0.017234  -0.049322  -0.130629   0.009768
   23  H  3  Z    0.000000   0.000000   0.000000   0.000000   0.000000

                     16         17         18         19         20
                    1.1334     1.3963     1.9563     1.9687     1.9753
                     A          A          A          A          A   
    1  O  1  S    0.000000   0.078098   0.000000   0.000723  -0.004478
    2  O  1  S    0.000000  -1.644988   0.000000  -0.001815   0.111475
    3  O  1  X    0.000000  -0.113702   0.000000  -0.017674  -0.020954
    4  O  1  Y    0.000000   0.039979   0.000000   0.032275  -0.039098
    5  O  1  Z   -0.953529   0.000000  -0.026605   0.000000   0.000000
    6  O  1  S    0.000000   2.411388   0.000000  -0.019295  -0.170053
    7  O  1  X    0.000000   0.185927   0.000000   0.047251   0.076667
    8  O  1  Y    0.000000  -0.095121   0.000000  -0.088330   0.081599
    9  O  1  Z    1.470237   0.000000   0.060018   0.000000   0.000000
   10  O  1  S    0.000000  -1.321988   0.000000   0.070645   0.112773
   11  O  1  X    0.000000   0.080040   0.000000  -0.092314  -0.158289
   12  O  1  Y    0.000000   0.045373   0.000000   0.160773  -0.052150
   13  O  1  Z   -0.702879   0.000000  -0.047927   0.000000   0.000000
   14  H  2  S    0.000000  -0.168987   0.000000   0.044388   0.021702
   15  H  2  S    0.000000   0.364124   0.000000  -0.138480  -0.080428
   16  H  2  X    0.000000   0.125771   0.000000  -0.350333   0.550514
   17  H  2  Y    0.000000  -0.088419   0.000000  -0.400620   0.548901
   18  H  2  Z    0.029159   0.000000  -0.487176   0.000000   0.000000
   19  H  3  S    0.000000  -0.056320   0.000000  -0.005813   0.006903
   20  H  3  S    0.000000   0.237347   0.000000   0.031012  -0.053966
   21  H  3  X    0.000000   0.049205   0.000000   0.694806   0.628124
   22  H  3  Y    0.000000   0.059999   0.000000  -0.487374   0.044881
   23  H  3  Z   -0.005284   0.000000   0.873362   0.000000   0.000000

                     21         22         23
                    1.9821     2.0757     2.2151
                     A          A          A   
    1  O  1  S    0.000000  -0.007207   0.014381
    2  O  1  S    0.000000   0.087529  -0.399812
    3  O  1  X    0.000000  -0.064394   0.192808
    4  O  1  Y    0.000000  -0.184484  -0.179642
    5  O  1  Z    0.027258   0.000000   0.000000
    6  O  1  S    0.000000  -0.015579   0.523700
    7  O  1  X    0.000000   0.090121  -0.397225
    8  O  1  Y    0.000000   0.303755   0.378712
    9  O  1  Z   -0.002515   0.000000   0.000000
   10  O  1  S    0.000000  -0.210505  -0.025586
   11  O  1  X    0.000000   0.094185   0.066485
   12  O  1  Y    0.000000   0.015172  -0.106837
   13  O  1  Z   -0.114865   0.000000   0.000000
   14  H  2  S    0.000000  -0.035298   0.047852
   15  H  2  S    0.000000   0.090480  -0.228133
   16  H  2  X    0.000000  -0.288435  -0.708888
   17  H  2  Y    0.000000  -0.204736   0.719247
   18  H  2  Z    0.876019   0.000000   0.000000
   19  H  3  S    0.000000  -0.102809   0.027379
   20  H  3  S    0.000000   0.260761  -0.059977
   21  H  3  X    0.000000   0.353545   0.013073
   22  H  3  Y    0.000000   0.871686  -0.071789
   23  H  3  Z    0.490548   0.000000   0.000000
 ...... END OF RHF CALCULATION ......
 CPU     0: STEP CPU TIME=     0.49 TOTAL CPU TIME=          0.6 (      0.0 MIN)
 TOTAL WALL CLOCK TIME=          0.9 SECONDS, CPU UTILIZATION IS    66.28%

     ---------------------------------------------------------------------
     PROPERTIES FOR THE B3LYP    DFT FUNCTIONAL (RHF  TYPE) DENSITY MATRIX
     ---------------------------------------------------------------------

          -----------------
          ENERGY COMPONENTS
          -----------------

         WAVEFUNCTION NORMALIZATION =       1.0000000000

                ONE ELECTRON ENERGY =    -113.6968433047
                TWO ELECTRON ENERGY =      33.1770026329
           NUCLEAR REPULSION ENERGY =       4.4771148018
                                      ------------------
                       TOTAL ENERGY =     -76.0427258700

 ELECTRON-ELECTRON POTENTIAL ENERGY =      33.1770026329
  NUCLEUS-ELECTRON POTENTIAL ENERGY =    -188.7195268861
   NUCLEUS-NUCLEUS POTENTIAL ENERGY =       4.4771148018
                                      ------------------
             TOTAL POTENTIAL ENERGY =    -151.0654094514
               TOTAL KINETIC ENERGY =      75.0226835814
                 VIRIAL RATIO (V/T) =       2.0135964516

          ---------------------------------------
          MULLIKEN AND LOWDIN POPULATION ANALYSES
          ---------------------------------------

     ATOMIC MULLIKEN POPULATION IN EACH MOLECULAR ORBITAL

                      1          2          3          4          5

                  2.000000   2.000000   2.000000   2.000000   2.000000

    1             2.000039   1.979299   1.225896   1.250353   1.999630
    2            -0.000027   0.015118   0.657828   0.092104   0.000284
    3            -0.000013   0.005583   0.116276   0.657543   0.000087

               ----- POPULATIONS IN EACH AO -----
                             MULLIKEN      LOWDIN
              1  O  1  S      1.99761     1.99586
              2  O  1  S      1.00638     0.98408
              3  O  1  X      0.68966     0.64540
              4  O  1  Y      0.65095     0.60609
              5  O  1  Z      1.21060     1.15756
              6  O  1  S      0.98774     0.83203
              7  O  1  X      0.45468     0.46004
              8  O  1  Y      0.45340     0.45146
              9  O  1  Z      0.66279     0.67682
             10  O  1  S      0.01085     0.20423
             11  O  1  X      0.10422     0.19923
             12  O  1  Y      0.10009     0.23373
             13  O  1  Z      0.12624     0.16514
             14  H  2  S      0.29098     0.28416
             15  H  2  S      0.47288     0.39353
             16  H  2  X      0.00059     0.00108
             17  H  2  Y      0.00057     0.00100
             18  H  2  Z      0.00028     0.00039
             19  H  3  S      0.28005     0.28097
             20  H  3  S      0.49895     0.42662
             21  H  3  X      0.00010     0.00010
             22  H  3  Y      0.00029     0.00039
             23  H  3  Z      0.00009     0.00010

          ----- MULLIKEN ATOMIC OVERLAP POPULATIONS -----
          (OFF-DIAGONAL ELEMENTS NEED TO BE MULTIPLIED BY 2)

             1           2           3

    1    8.1373918
    2    0.1701650   0.5953258
    3    0.1476606  -0.0001841   0.6319991

          TOTAL MULLIKEN AND LOWDIN ATOMIC POPULATIONS
       ATOM         MULL.POP.    CHARGE          LOW.POP.     CHARGE
    1 O             8.455218   -0.455218         8.611664   -0.611664
    2 H             0.765307    0.234693         0.680163    0.319837
    3 H             0.779476    0.220524         0.708173    0.291827

          -------------------------------
          BOND ORDER AND VALENCE ANALYSIS     BOND ORDER THRESHOLD=0.050
          -------------------------------

                   BOND                       BOND                       BOND
  ATOM PAIR DIST  ORDER      ATOM PAIR DIST  ORDER      ATOM PAIR DIST  ORDER
    1   2  1.825  0.943        1   3  2.124  0.951

                       TOTAL       BONDED        FREE
      ATOM            VALENCE     VALENCE     VALENCE
    1 O                 1.894       1.894      -0.000
    2 H                 0.944       0.944       0.000
    3 H                 0.951       0.951      -0.000

          ---------------------
          ELECTROSTATIC MOMENTS
          ---------------------

 POINT   1           X           Y           Z (BOHR)    CHARGE
                 0.184653    0.053785    0.000000       -0.00 (A.U.)
         DX          DY          DZ         /D/  (DEBYE)
    -2.149028   -0.438904    0.000000    2.193390
 ...... END OF PROPERTY EVALUATION ......
 CPU     0: STEP CPU TIME=     0.04 TOTAL CPU TIME=          0.6 (      0.0 MIN)
 TOTAL WALL CLOCK TIME=          0.9 SECONDS, CPU UTILIZATION IS    66.30%

 BEGINNING ONE ELECTRON GRADIENT...
 ..... END OF 1-ELECTRON GRADIENT ......
 CPU     0: STEP CPU TIME=     0.02 TOTAL CPU TIME=          0.6 (      0.0 MIN)
 TOTAL WALL CLOCK TIME=          0.9 SECONDS, CPU UTILIZATION IS    67.02%

          ----------------------
          GRADIENT OF THE ENERGY
          ----------------------
 MEMORY FOR GRID POINT CONTRIBUTIONS TO THE DFT GRADIENT=    136239 WORDS.
 CPU     0: STEP CPU TIME=     0.02 TOTAL CPU TIME=          0.6 (      0.0 MIN)
 TOTAL WALL CLOCK TIME=          1.0 SECONDS, CPU UTILIZATION IS    66.33%
 THE COARSE/FINE SCHWARZ SCREENINGS SKIPPED           41/         121 BLOCKS.
 THE NUMBER OF GRADIENT INTEGRAL BLOCKS COMPUTED WAS      1281
 ...... END OF 2-ELECTRON GRADIENT ......
 CPU     0: STEP CPU TIME=     0.00 TOTAL CPU TIME=          0.6 (      0.0 MIN)
 TOTAL WALL CLOCK TIME=          1.0 SECONDS, CPU UTILIZATION IS    65.00%

          NSERCH=  0     ENERGY=     -76.0427259

                                 -----------------------
                                 GRADIENT (HARTREE/BOHR)
                                 -----------------------
        ATOM     ZNUC       DE/DX         DE/DY         DE/DZ
 --------------------------------------------------------------
    1  O            8.0     0.0763737    -0.0042314     0.0000000
    2  H            1.0    -0.0545986     0.0597729     0.0000000
    3  H            1.0    -0.0217751    -0.0555415     0.0000000

          MAXIMUM GRADIENT = 0.0763737    RMS GRADIENT = 0.0421158

 NSERCH:   0  E=      -76.0427258700  GRAD. MAX=  0.0763737  R.M.S.=  0.0421158

          FORCE CONSTANT MATRIX NOT UPDATED --- TAKING FIRST STEP
          MIN SEARCH, CORRECT HESSIAN, TRYING PURE NR STEP
               NR STEP HAS LENGTH         =   2.444580
          TRIM/QA LAMBDA FOR NON-TS MODES =  -0.32412205
          TRIM/QA STEP HAS LENGTH         =   0.300000
          RADIUS OF STEP TAKEN=   0.30000  CURRENT TRUST RADIUS=   0.30000

 BEGINNING GEOMETRY SEARCH POINT NSERCH=   1 ...

 COORDINATES OF ALL ATOMS ARE (ANGS)
   ATOM   CHARGE       X              Y              Z
 ------------------------------------------------------------
 O           8.0   0.1274880172   0.0611963096   0.0000000000
 H           1.0  -1.0220395144   1.2640855622   0.0000000000
 H           1.0  -0.6584925727  -1.7776490878   0.0000000000

          INTERNUCLEAR DISTANCES (ANGS.)
          ------------------------------

                1 O          2 H          3 H     

   1 O       0.0000000    1.6638378 *  1.9997795 *
   2 H       1.6638378 *  0.0000000    3.0633831  
   3 H       1.9997795 *  3.0633831    0.0000000  

  * ... LESS THAN  3.000

 ...... END OF ONE-ELECTRON INTEGRALS ......
 CPU     0: STEP CPU TIME=     0.01 TOTAL CPU TIME=          0.7 (      0.0 MIN)
 TOTAL WALL CLOCK TIME=          1.0 SECONDS, CPU UTILIZATION IS    66.00%
  ...... END OF TWO-ELECTRON INTEGRALS .....
 CPU     0: STEP CPU TIME=     0.01 TOTAL CPU TIME=          0.7 (      0.0 MIN)
 TOTAL WALL CLOCK TIME=          1.0 SECONDS, CPU UTILIZATION IS    66.34%

          --------------------------
             R-B3LYP SCF CALCULATION
          --------------------------
         DENSITY MATRIX CONVERGENCE THRESHOLD=  4.00E-04
     COARSE -> FINE DFT GRID SWITCH THRESHOLD=  6.00E-03 (SWITCH IN $DFT)
                   HF -> DFT SWITCH THRESHOLD=  5.00E-03 (SWOFF IN $DFT)

 DIRECT SCF CALCULATION, SCHWRZ=T   FDIFF=T,  DIRTHR=  0.00E+00 NITDIR=10

 DFT CODE IS SWITCHING FROM THE FINE GRID NRAD= 96,  NLEB=  302
                      TO THE COARSE GRID NRAD0= 24, NLEB0=  110

                                                                                                                   NONZERO     BLOCKS
 ITER EX DEM     TOTAL ENERGY        E CHANGE  DENSITY CHANGE    DIIS ERROR      VIR. SHIFT       DAMPING        INTEGRALS    SKIPPED
          * * *   INITIATING DIIS PROCEDURE   * * *
   1  0  0      -76.0814229497   -76.0814229497   0.065007624   0.023420877     0.000000000     1.000000000          19351         30
   2  1  0      -76.0732084529     0.0082144968   0.046700826   0.070819265     0.000000000     1.000000000          19311         31
   3  2  0      -76.0825016751    -0.0092932222   0.003796437   0.002397574     0.000000000     1.000000000          19123         44
 DFT CODE IS SWITCHING BACK TO THE FINE GRID
          * * *   INITIATING DIIS PROCEDURE   * * *
   4  3  0      -76.0825276205    -0.0000259454   0.005913104   0.001806686          19382         26
   5  4  0      -76.0825110401     0.0000165804   0.004590887   0.004056481          18824         73
   6  5  0      -76.0825266832    -0.0000156431   0.001894319   0.002672340          18797         82
   7  6  0      -76.0825394657    -0.0000127824   0.000093010   0.000038941          18580        103
   8  7  0      -76.0825394729    -0.0000000073   0.000016104   0.000011633          17687        197
   9  8  0      -76.0825394732    -0.0000000002   0.000003467   0.000001687          17064        270

          -----------------
          DENSITY CONVERGED
          -----------------
     TIME TO FORM FOCK OPERATORS=       0.1 SECONDS (       0.0 SEC/ITER)
     FOCK TIME ON FIRST ITERATION=       0.0, LAST ITERATION=       0.0
     TIME TO SOLVE SCF EQUATIONS=       0.1 SECONDS (       0.0 SEC/ITER)

 FINAL R-B3LYP ENERGY IS      -76.0825394732 AFTER   9 ITERATIONS
 DFT EXCHANGE + CORRELATION ENERGY =        -7.1843263189
 TOTAL ELECTRON NUMBER             =        10.0000002693
 ...... END OF RHF CALCULATION ......
 CPU     0: STEP CPU TIME=     0.27 TOTAL CPU TIME=          0.9 (      0.0 MIN)
 TOTAL WALL CLOCK TIME=          1.4 SECONDS, CPU UTILIZATION IS    68.12%
 ..... END OF 1-ELECTRON GRADIENT ......
 CPU     0: STEP CPU TIME=     0.01 TOTAL CPU TIME=          0.9 (      0.0 MIN)
 TOTAL WALL CLOCK TIME=          1.4 SECONDS, CPU UTILIZATION IS    67.86%
 MEMORY FOR GRID POINT CONTRIBUTIONS TO THE DFT GRADIENT=    136239 WORDS.
 CPU     0: STEP CPU TIME=     0.04 TOTAL CPU TIME=          1.0 (      0.0 MIN)
 TOTAL WALL CLOCK TIME=          1.4 SECONDS, CPU UTILIZATION IS    68.28%
 ...... END OF 2-ELECTRON GRADIENT ......
 CPU     0: STEP CPU TIME=     0.01 TOTAL CPU TIME=          1.0 (      0.0 MIN)
 TOTAL WALL CLOCK TIME=          1.5 SECONDS, CPU UTILIZATION IS    68.03%

          NSERCH=  1     ENERGY=     -76.0825395

                                 -----------------------
                                 GRADIENT (HARTREE/BOHR)
                                 -----------------------
        ATOM     ZNUC       DE/DX         DE/DY         DE/DZ
 --------------------------------------------------------------
    1  O            8.0     0.0791670    -0.0081462     0.0000000
    2  H            1.0    -0.0586261     0.0724707     0.0000000
    3  H            1.0    -0.0205409    -0.0643245     0.0000000

          MAXIMUM GRADIENT = 0.0791670    RMS GRADIENT = 0.0466457

 NSERCH:   1  E=      -76.0825394732  GRAD. MAX=  0.0791670  R.M.S.=  0.0466457

          HESSIAN UPDATED USING THE BFGS FORMULA
          WARNING! HEREDITARY POSITIVE DEFINITENESS ENDANGERED
 LOCAL CURVATURE   1 OF THE APPROXIMATE HESSIAN HAS EIGENVALUE=   -0.067969
 *** THIS MODE HAS AN INCORRECT CURVATURE ***
 THE COMPONENTS OF THIS MODE FOLLOWS:
       -0.173629       0.125772       0.000000       0.224842      -0.731073
       -0.000000      -0.051213       0.605301       0.000000
             ACTUAL ENERGY CHANGE WAS  -0.0398136031
          PREDICTED ENERGY CHANGE WAS  -0.0334824790 RATIO=  1.189
          TRIM/QA LAMBDA FOR NON-TS MODES =  -0.38223153
          TRIM/QA STEP HAS LENGTH         =   0.424264
          RADIUS OF STEP TAKEN=   0.42426  CURRENT TRUST RADIUS=   0.42426

 BEGINNING GEOMETRY SEARCH POINT NSERCH=   2 ...

 COORDINATES OF ALL ATOMS ARE (ANGS)
   ATOM   CHARGE       X              Y              Z
 ------------------------------------------------------------
 O           8.0   0.0121140933   0.0764950220   0.0000000000
 H           1.0  -0.9332440772   1.1377941453  -0.0000000000
 H           1.0  -0.6319140861  -1.6666563833   0.0000000000

          INTERNUCLEAR DISTANCES (ANGS.)
          ------------------------------

                1 O          2 H          3 H     

   1 O       0.0000000    1.4212874 *  1.8583189 *
   2 H       1.4212874 *  0.0000000    2.8205926 *
   3 H       1.8583189 *  2.8205926 *  0.0000000  

  * ... LESS THAN  3.000

 ...... END OF ONE-ELECTRON INTEGRALS ......
 CPU     0: STEP CPU TIME=     0.00 TOTAL CPU TIME=          1.0 (      0.0 MIN)
 TOTAL WALL CLOCK TIME=          1.5 SECONDS, CPU UTILIZATION IS    67.57%
  ...... END OF TWO-ELECTRON INTEGRALS .....
 CPU     0: STEP CPU TIME=     0.01 TOTAL CPU TIME=          1.0 (      0.0 MIN)
 TOTAL WALL CLOCK TIME=          1.5 SECONDS, CPU UTILIZATION IS    67.79%

          --------------------------
             R-B3LYP SCF CALCULATION
          --------------------------
         DENSITY MATRIX CONVERGENCE THRESHOLD=  4.00E-04
     COARSE -> FINE DFT GRID SWITCH THRESHOLD=  6.00E-03 (SWITCH IN $DFT)
                   HF -> DFT SWITCH THRESHOLD=  5.00E-03 (SWOFF IN $DFT)

 DIRECT SCF CALCULATION, SCHWRZ=T   FDIFF=T,  DIRTHR=  0.00E+00 NITDIR=10

 DFT CODE IS SWITCHING FROM THE FINE GRID NRAD= 96,  NLEB=  302
                      TO THE COARSE GRID NRAD0= 24, NLEB0=  110

                                                                                                                   NONZERO     BLOCKS
 ITER EX DEM     TOTAL ENERGY        E CHANGE  DENSITY CHANGE    DIIS ERROR      VIR. SHIFT       DAMPING        INTEGRALS    SKIPPED
          * * *   INITIATING DIIS PROCEDURE   * * *
   1  0  0      -76.1428669151   -76.1428669151   0.088841739   0.048229350     0.000000000     1.000000000          19673         11
   2  1  0      -76.1336054635     0.0092614516   0.072578373   0.086542826     0.000000000     1.000000000          19678         12
   3  2  0      -76.1459859822    -0.0123805187   0.020905949   0.026508035     0.000000000     1.000000000          19660         16
   4  3  0      -76.1473204154    -0.0013344331   0.004258786   0.003521111     0.000000000     1.000000000          19625         23
 DFT CODE IS SWITCHING BACK TO THE FINE GRID
          * * *   INITIATING DIIS PROCEDURE   * * *
   5  4  0      -76.1458152088     0.0015052066   0.002788720   0.000798133          19685          9
   6  5  0      -76.1458040985     0.0000111103   0.001951478   0.002825248          19420         36
   7  6  0      -76.1458172346    -0.0000131361   0.000422384   0.000403896          19236         48
   8  7  0      -76.1458175361    -0.0000003015   0.000239921   0.000211482          19030         61
   9  8  0      -76.1458176171    -0.0000000810   0.000049358   0.000056194          18768         80

          -----------------
          DENSITY CONVERGED
          -----------------
     TIME TO FORM FOCK OPERATORS=       0.2 SECONDS (       0.0 SEC/ITER)
     FOCK TIME ON FIRST ITERATION=       0.0, LAST ITERATION=       0.0
     TIME TO SOLVE SCF EQUATIONS=       0.0 SECONDS (       0.0 SEC/ITER)

 FINAL R-B3LYP ENERGY IS      -76.1458176171 AFTER   9 ITERATIONS
 DFT EXCHANGE + CORRELATION ENERGY =        -7.2237498348
 TOTAL ELECTRON NUMBER             =         9.9999987302
 ...... END OF RHF CALCULATION ......
 CPU     0: STEP CPU TIME=     0.25 TOTAL CPU TIME=          1.3 (      0.0 MIN)
 TOTAL WALL CLOCK TIME=          1.9 SECONDS, CPU UTILIZATION IS    65.97%
 ..... END OF 1-ELECTRON GRADIENT ......
 CPU     0: STEP CPU TIME=     0.01 TOTAL CPU TIME=          1.3 (      0.0 MIN)
 TOTAL WALL CLOCK TIME=          1.9 SECONDS, CPU UTILIZATION IS    66.15%
 MEMORY FOR GRID POINT CONTRIBUTIONS TO THE DFT GRADIENT=    136239 WORDS.
 CPU     0: STEP CPU TIME=     0.04 TOTAL CPU TIME=          1.3 (      0.0 MIN)
 TOTAL WALL CLOCK TIME=          2.0 SECONDS, CPU UTILIZATION IS    66.50%
 ...... END OF 2-ELECTRON GRADIENT ......
 CPU     0: STEP CPU TIME=     0.00 TOTAL CPU TIME=          1.3 (      0.0 MIN)
 TOTAL WALL CLOCK TIME=          2.0 SECONDS, CPU UTILIZATION IS    66.16%

          NSERCH=  2     ENERGY=     -76.1458176

                                 -----------------------
                                 GRADIENT (HARTREE/BOHR)
                                 -----------------------
        ATOM     ZNUC       DE/DX         DE/DY         DE/DZ
 --------------------------------------------------------------
    1  O            8.0     0.0798908    -0.0146498     0.0000000
    2  H            1.0    -0.0627229     0.0902886     0.0000000
    3  H            1.0    -0.0171679    -0.0756388     0.0000000

          MAXIMUM GRADIENT = 0.0902886    RMS GRADIENT = 0.0523867

 NSERCH:   2  E=      -76.1458176171  GRAD. MAX=  0.0902886  R.M.S.=  0.0523867

          HESSIAN UPDATED USING THE BFGS FORMULA
          WARNING! HEREDITARY POSITIVE DEFINITENESS ENDANGERED
 LOCAL CURVATURE   1 OF THE APPROXIMATE HESSIAN HAS EIGENVALUE=   -0.066874
 *** THIS MODE HAS AN INCORRECT CURVATURE ***
 THE COMPONENTS OF THIS MODE FOLLOWS:
       -0.039889       0.212010       0.000000       0.156659      -0.774140
       -0.000000      -0.116771       0.562130       0.000000
             ACTUAL ENERGY CHANGE WAS  -0.0632781439
          PREDICTED ENERGY CHANGE WAS  -0.0639770282 RATIO=  0.989
          TRIM/QA LAMBDA FOR NON-TS MODES =  -0.36173191
          TRIM/QA STEP HAS LENGTH         =   0.500000
          RADIUS OF STEP TAKEN=   0.50000  CURRENT TRUST RADIUS=   0.50000

 BEGINNING GEOMETRY SEARCH POINT NSERCH=   3 ...

 COORDINATES OF ALL ATOMS ARE (ANGS)
   ATOM   CHARGE       X              Y              Z
 ------------------------------------------------------------
 O           8.0  -0.1060904485   0.1078261112   0.0000000000
 H           1.0  -0.8348681752   0.9729787133  -0.0000000000
 H           1.0  -0.6120854462  -1.5331720405   0.0000000000

          INTERNUCLEAR DISTANCES (ANGS.)
          ------------------------------

                1 O          2 H          3 H     

   1 O       0.0000000    1.1311967 *  1.7172379 *
   2 H       1.1311967 *  0.0000000    2.5160333 *
   3 H       1.7172379 *  2.5160333 *  0.0000000  

  * ... LESS THAN  3.000

 ...... END OF ONE-ELECTRON INTEGRALS ......
 CPU     0: STEP CPU TIME=     0.01 TOTAL CPU TIME=          1.3 (      0.0 MIN)
 TOTAL WALL CLOCK TIME=          2.0 SECONDS, CPU UTILIZATION IS    66.67%
  ...... END OF TWO-ELECTRON INTEGRALS .....
 CPU     0: STEP CPU TIME=     0.00 TOTAL CPU TIME=          1.3 (      0.0 MIN)
 TOTAL WALL CLOCK TIME=          2.0 SECONDS, CPU UTILIZATION IS    66.33%

          --------------------------
             R-B3LYP SCF CALCULATION
          --------------------------
         DENSITY MATRIX CONVERGENCE THRESHOLD=  4.00E-04
     COARSE -> FINE DFT GRID SWITCH THRESHOLD=  6.00E-03 (SWITCH IN $DFT)
                   HF -> DFT SWITCH THRESHOLD=  5.00E-03 (SWOFF IN $DFT)

 DIRECT SCF CALCULATION, SCHWRZ=T   FDIFF=T,  DIRTHR=  0.00E+00 NITDIR=10

 DFT CODE IS SWITCHING FROM THE FINE GRID NRAD= 96,  NLEB=  302
                      TO THE COARSE GRID NRAD0= 24, NLEB0=  110

                                                                                                                   NONZERO     BLOCKS
 ITER EX DEM     TOTAL ENERGY        E CHANGE  DENSITY CHANGE    DIIS ERROR      VIR. SHIFT       DAMPING        INTEGRALS    SKIPPED
          * * *   INITIATING DIIS PROCEDURE   * * *
   1  0  0      -76.2087312476   -76.2087312476   0.101767300   0.073510170     0.000000000     1.000000000          19771          2
   2  1  0      -76.2080017466     0.0007295010   0.100894920   0.105298022     0.000000000     1.000000000          19778          2
   3  2  0      -76.2115276006    -0.0035258540   0.053721295   0.092796422     0.000000000     1.000000000          19757          4
   4  3  0      -76.2225339593    -0.0110063587   0.003886237   0.004565423     0.000000000     1.000000000          19746          5
 DFT CODE IS SWITCHING BACK TO THE FINE GRID
          * * *   INITIATING DIIS PROCEDURE   * * *
   5  4  0      -76.2227591872    -0.0002252279   0.004221206   0.001807643          19781          1
   6  5  0      -76.2227219072     0.0000372800   0.002808809   0.005815595          19719         12
   7  6  0      -76.2227639349    -0.0000420277   0.000503359   0.000380832          19698         15
   8  7  0      -76.2227641102    -0.0000001754   0.000153779   0.000189771          19666         21
   9  8  0      -76.2227641624    -0.0000000522   0.000004104   0.000004626          19437         39

          -----------------
          DENSITY CONVERGED
          -----------------
     TIME TO FORM FOCK OPERATORS=       0.2 SECONDS (       0.0 SEC/ITER)
     FOCK TIME ON FIRST ITERATION=       0.0, LAST ITERATION=       0.0
     TIME TO SOLVE SCF EQUATIONS=       0.0 SECONDS (       0.0 SEC/ITER)

 FINAL R-B3LYP ENERGY IS      -76.2227641624 AFTER   9 ITERATIONS
 DFT EXCHANGE + CORRELATION ENERGY =        -7.2959452410
 TOTAL ELECTRON NUMBER             =         9.9999998707
 ...... END OF RHF CALCULATION ......
 CPU     0: STEP CPU TIME=     0.25 TOTAL CPU TIME=          1.6 (      0.0 MIN)
 TOTAL WALL CLOCK TIME=          2.3 SECONDS, CPU UTILIZATION IS    66.81%
 ..... END OF 1-ELECTRON GRADIENT ......
 CPU     0: STEP CPU TIME=     0.02 TOTAL CPU TIME=          1.6 (      0.0 MIN)
 TOTAL WALL CLOCK TIME=          2.4 SECONDS, CPU UTILIZATION IS    67.09%
 MEMORY FOR GRID POINT CONTRIBUTIONS TO THE DFT GRADIENT=    136239 WORDS.
 CPU     0: STEP CPU TIME=     0.02 TOTAL CPU TIME=          1.6 (      0.0 MIN)
 TOTAL WALL CLOCK TIME=          2.4 SECONDS, CPU UTILIZATION IS    66.80%
 ...... END OF 2-ELECTRON GRADIENT ......
 CPU     0: STEP CPU TIME=     0.00 TOTAL CPU TIME=          1.6 (      0.0 MIN)
 TOTAL WALL CLOCK TIME=          2.4 SECONDS, CPU UTILIZATION IS    66.53%

          NSERCH=  3     ENERGY=     -76.2227642

                                 -----------------------
                                 GRADIENT (HARTREE/BOHR)
                                 -----------------------
        ATOM     ZNUC       DE/DX         DE/DY         DE/DZ
 --------------------------------------------------------------
    1  O            8.0     0.0521485     0.0075377     0.0000000
    2  H            1.0    -0.0398992     0.0818363     0.0000000
    3  H            1.0    -0.0122494    -0.0893740     0.0000000

          MAXIMUM GRADIENT = 0.0893740    RMS GRADIENT = 0.0461918

 NSERCH:   3  E=      -76.2227641624  GRAD. MAX=  0.0893740  R.M.S.=  0.0461918

          HESSIAN UPDATED USING THE BFGS FORMULA
             ACTUAL ENERGY CHANGE WAS  -0.0769465453
          PREDICTED ENERGY CHANGE WAS  -0.0843251637 RATIO=  0.912
          MIN SEARCH, CORRECT HESSIAN, TRYING PURE NR STEP
               NR STEP HAS LENGTH         = 120.680849
          TRIM/QA LAMBDA FOR NON-TS MODES =  -0.26110674
          TRIM/QA STEP HAS LENGTH         =   0.500000
          RADIUS OF STEP TAKEN=   0.50000  CURRENT TRUST RADIUS=   0.50000

 BEGINNING GEOMETRY SEARCH POINT NSERCH=   4 ...

 COORDINATES OF ALL ATOMS ARE (ANGS)
   ATOM   CHARGE       X              Y              Z
 ------------------------------------------------------------
 O           8.0  -0.1896201679   0.0931945267   0.0000000000
 H           1.0  -0.7686371909   0.8099668628   0.0000000000
 H           1.0  -0.5947867112  -1.3555286054   0.0000000000

          INTERNUCLEAR DISTANCES (ANGS.)
          ------------------------------

                1 O          2 H          3 H     

   1 O       0.0000000    0.9214246 *  1.5043133 *
   2 H       0.9214246 *  0.0000000    2.1724628 *
   3 H       1.5043133 *  2.1724628 *  0.0000000  

  * ... LESS THAN  3.000

 ...... END OF ONE-ELECTRON INTEGRALS ......
 CPU     0: STEP CPU TIME=     0.01 TOTAL CPU TIME=          1.6 (      0.0 MIN)
 TOTAL WALL CLOCK TIME=          2.4 SECONDS, CPU UTILIZATION IS    66.94%
  ...... END OF TWO-ELECTRON INTEGRALS .....
 CPU     0: STEP CPU TIME=     0.01 TOTAL CPU TIME=          1.6 (      0.0 MIN)
 TOTAL WALL CLOCK TIME=          2.4 SECONDS, CPU UTILIZATION IS    67.08%

          --------------------------
             R-B3LYP SCF CALCULATION
          --------------------------
         DENSITY MATRIX CONVERGENCE THRESHOLD=  4.00E-04
     COARSE -> FINE DFT GRID SWITCH THRESHOLD=  6.00E-03 (SWITCH IN $DFT)
                   HF -> DFT SWITCH THRESHOLD=  5.00E-03 (SWOFF IN $DFT)

 DIRECT SCF CALCULATION, SCHWRZ=T   FDIFF=T,  DIRTHR=  0.00E+00 NITDIR=10

 DFT CODE IS SWITCHING FROM THE FINE GRID NRAD= 96,  NLEB=  302
                      TO THE COARSE GRID NRAD0= 24, NLEB0=  110

                                                                                                                   NONZERO     BLOCKS
 ITER EX DEM     TOTAL ENERGY        E CHANGE  DENSITY CHANGE    DIIS ERROR      VIR. SHIFT       DAMPING        INTEGRALS    SKIPPED
          * * *   INITIATING DIIS PROCEDURE   * * *
   1  0  0      -76.2579593591   -76.2579593591   0.092760617   0.065878957     0.000000000     1.000000000          19819          0
   2  1  0      -76.2624511964    -0.0044918373   0.078270067   0.087156584     0.000000000     1.000000000          19819          0
   3  2  0      -76.2677567311    -0.0053055346   0.038808456   0.064626882     0.000000000     1.000000000          19819          0
   4  3  0      -76.2734963817    -0.0057396506   0.001653699   0.001328009     0.000000000     1.000000000          19819          0
 DFT CODE IS SWITCHING BACK TO THE FINE GRID
          * * *   INITIATING DIIS PROCEDURE   * * *
   5  4  0      -76.2736530599    -0.0001566782   0.001197894   0.000610717          19819          0
   6  5  0      -76.2736528625     0.0000001973   0.000645316   0.001047926          19794          1
   7  6  0      -76.2736542207    -0.0000013582   0.000196706   0.000338446          19776          3

          -----------------
          DENSITY CONVERGED
          -----------------
     TIME TO FORM FOCK OPERATORS=       0.1 SECONDS (       0.0 SEC/ITER)
     FOCK TIME ON FIRST ITERATION=       0.0, LAST ITERATION=       0.0
     TIME TO SOLVE SCF EQUATIONS=       0.0 SECONDS (       0.0 SEC/ITER)

 FINAL R-B3LYP ENERGY IS      -76.2736542207 AFTER   7 ITERATIONS
 DFT EXCHANGE + CORRELATION ENERGY =        -7.3892951371
 TOTAL ELECTRON NUMBER             =        10.0000005574
 ...... END OF RHF CALCULATION ......
 CPU     0: STEP CPU TIME=     0.16 TOTAL CPU TIME=          1.8 (      0.0 MIN)
 TOTAL WALL CLOCK TIME=          2.6 SECONDS, CPU UTILIZATION IS    67.55%
 ..... END OF 1-ELECTRON GRADIENT ......
 CPU     0: STEP CPU TIME=     0.02 TOTAL CPU TIME=          1.8 (      0.0 MIN)
 TOTAL WALL CLOCK TIME=          2.7 SECONDS, CPU UTILIZATION IS    67.79%
 MEMORY FOR GRID POINT CONTRIBUTIONS TO THE DFT GRADIENT=    136239 WORDS.
 CPU     0: STEP CPU TIME=     0.02 TOTAL CPU TIME=          1.8 (      0.0 MIN)
 TOTAL WALL CLOCK TIME=          2.7 SECONDS, CPU UTILIZATION IS    67.28%
 ...... END OF 2-ELECTRON GRADIENT ......
 CPU     0: STEP CPU TIME=     0.01 TOTAL CPU TIME=          1.8 (      0.0 MIN)
 TOTAL WALL CLOCK TIME=          2.7 SECONDS, CPU UTILIZATION IS    67.15%

          NSERCH=  4     ENERGY=     -76.2736542

                                 -----------------------
                                 GRADIENT (HARTREE/BOHR)
                                 -----------------------
        ATOM     ZNUC       DE/DX         DE/DY         DE/DZ
 --------------------------------------------------------------
    1  O            8.0    -0.0480916     0.1409212     0.0000000
    2  H            1.0     0.0607556    -0.0275980     0.0000000
    3  H            1.0    -0.0126639    -0.1133232     0.0000000

          MAXIMUM GRADIENT = 0.1409212    RMS GRADIENT = 0.0663551

 NSERCH:   4  E=      -76.2736542207  GRAD. MAX=  0.1409212  R.M.S.=  0.0663551

          HESSIAN UPDATED USING THE BFGS FORMULA
             ACTUAL ENERGY CHANGE WAS  -0.0508900583
          PREDICTED ENERGY CHANGE WAS  -0.0671614665 RATIO=  0.758
          MIN SEARCH, CORRECT HESSIAN, TRYING PURE NR STEP
               NR STEP HAS LENGTH         =  16.151382
          TRIM/QA LAMBDA FOR NON-TS MODES =  -0.18798795
          TRIM/QA STEP HAS LENGTH         =   0.500000
          RADIUS OF STEP TAKEN=   0.50000  CURRENT TRUST RADIUS=   0.50000

 BEGINNING GEOMETRY SEARCH POINT NSERCH=   5 ...

 COORDINATES OF ALL ATOMS ARE (ANGS)
   ATOM   CHARGE       X              Y              Z
 ------------------------------------------------------------
 O           8.0  -0.2329955301  -0.0424255187   0.0000000000
 H           1.0  -0.7591842190   0.7376047842   0.0000000000
 H           1.0  -0.5608643209  -1.1475464815   0.0000000000

          INTERNUCLEAR DISTANCES (ANGS.)
          ------------------------------

                1 O          2 H          3 H     

   1 O       0.0000000    0.9409154 *  1.1527317 *
   2 H       0.9409154 *  0.0000000    1.8955543 *
   3 H       1.1527317 *  1.8955543 *  0.0000000  

  * ... LESS THAN  3.000

 ...... END OF ONE-ELECTRON INTEGRALS ......
 CPU     0: STEP CPU TIME=     0.01 TOTAL CPU TIME=          1.9 (      0.0 MIN)
 TOTAL WALL CLOCK TIME=          2.7 SECONDS, CPU UTILIZATION IS    67.52%
  ...... END OF TWO-ELECTRON INTEGRALS .....
 CPU     0: STEP CPU TIME=     0.01 TOTAL CPU TIME=          1.9 (      0.0 MIN)
 TOTAL WALL CLOCK TIME=          2.8 SECONDS, CPU UTILIZATION IS    67.64%

          --------------------------
             R-B3LYP SCF CALCULATION
          --------------------------
         DENSITY MATRIX CONVERGENCE THRESHOLD=  4.00E-04
     COARSE -> FINE DFT GRID SWITCH THRESHOLD=  6.00E-03 (SWITCH IN $DFT)
                   HF -> DFT SWITCH THRESHOLD=  5.00E-03 (SWOFF IN $DFT)

 DIRECT SCF CALCULATION, SCHWRZ=T   FDIFF=T,  DIRTHR=  0.00E+00 NITDIR=10

 DFT CODE IS SWITCHING FROM THE FINE GRID NRAD= 96,  NLEB=  302
                      TO THE COARSE GRID NRAD0= 24, NLEB0=  110

                                                                                                                   NONZERO     BLOCKS
 ITER EX DEM     TOTAL ENERGY        E CHANGE  DENSITY CHANGE    DIIS ERROR      VIR. SHIFT       DAMPING        INTEGRALS    SKIPPED
          * * *   INITIATING DIIS PROCEDURE   * * *
   1  0  0      -76.3335316761   -76.3335316761   0.076000327   0.076320455     0.000000000     1.000000000          19819          0
   2  1  0      -76.3478412715    -0.0143095954   0.058717770   0.055852194     0.000000000     1.000000000          19819          0
   3  2  0      -76.3485775454    -0.0007362739   0.029454998   0.048297906     0.000000000     1.000000000          19819          0
   4  3  0      -76.3517194370    -0.0031418917   0.001853352   0.001324694     0.000000000     1.000000000          19819          0
 DFT CODE IS SWITCHING BACK TO THE FINE GRID
          * * *   INITIATING DIIS PROCEDURE   * * *
   5  4  0      -76.3522017920    -0.0004823550   0.001018500   0.000763849          19819          0
   6  5  0      -76.3522021665    -0.0000003745   0.000560716   0.000687403          19819          0
   7  6  0      -76.3522027052    -0.0000005387   0.000186967   0.000311359          19819          0
   8  7  0      -76.3522028420    -0.0000001368   0.000017285   0.000016941          19819          0

          -----------------
          DENSITY CONVERGED
          -----------------
     TIME TO FORM FOCK OPERATORS=       0.1 SECONDS (       0.0 SEC/ITER)
     FOCK TIME ON FIRST ITERATION=       0.0, LAST ITERATION=       0.0
     TIME TO SOLVE SCF EQUATIONS=       0.0 SECONDS (       0.0 SEC/ITER)

 FINAL R-B3LYP ENERGY IS      -76.3522028420 AFTER   8 ITERATIONS
 DFT EXCHANGE + CORRELATION ENERGY =        -7.4455766151
 TOTAL ELECTRON NUMBER             =        10.0000016060
 ...... END OF RHF CALCULATION ......
 CPU     0: STEP CPU TIME=     0.18 TOTAL CPU TIME=          2.0 (      0.0 MIN)
 TOTAL WALL CLOCK TIME=          3.0 SECONDS, CPU UTILIZATION IS    67.55%
 ..... END OF 1-ELECTRON GRADIENT ......
 CPU     0: STEP CPU TIME=     0.02 TOTAL CPU TIME=          2.1 (      0.0 MIN)
 TOTAL WALL CLOCK TIME=          3.0 SECONDS, CPU UTILIZATION IS    67.76%
 MEMORY FOR GRID POINT CONTRIBUTIONS TO THE DFT GRADIENT=    136239 WORDS.
 CPU     0: STEP CPU TIME=     0.02 TOTAL CPU TIME=          2.1 (      0.0 MIN)
 TOTAL WALL CLOCK TIME=          3.1 SECONDS, CPU UTILIZATION IS    67.31%
 ...... END OF 2-ELECTRON GRADIENT ......
 CPU     0: STEP CPU TIME=     0.01 TOTAL CPU TIME=          2.1 (      0.0 MIN)
 TOTAL WALL CLOCK TIME=          3.1 SECONDS, CPU UTILIZATION IS    67.64%

          NSERCH=  5     ENERGY=     -76.3522028

                                 -----------------------
                                 GRADIENT (HARTREE/BOHR)
                                 -----------------------
        ATOM     ZNUC       DE/DX         DE/DY         DE/DZ
 --------------------------------------------------------------
    1  O            8.0    -0.0241951     0.1189790     0.0000000
    2  H            1.0     0.0353202    -0.0042155     0.0000000
    3  H            1.0    -0.0111252    -0.1147635     0.0000000

          MAXIMUM GRADIENT = 0.1189790    RMS GRADIENT = 0.0570586

 NSERCH:   5  E=      -76.3522028420  GRAD. MAX=  0.1189790  R.M.S.=  0.0570586

          HESSIAN UPDATED USING THE BFGS FORMULA
          WARNING! HEREDITARY POSITIVE DEFINITENESS ENDANGERED
 LOCAL CURVATURE   1 OF THE APPROXIMATE HESSIAN HAS EIGENVALUE=   -4.437111
 *** THIS MODE HAS AN INCORRECT CURVATURE ***
 THE COMPONENTS OF THIS MODE FOLLOWS:
       -0.527573       0.493611       0.000000       0.449698      -0.518739
       -0.000000       0.077875       0.025128       0.000000
             ACTUAL ENERGY CHANGE WAS  -0.0785486213
          PREDICTED ENERGY CHANGE WAS  -0.0598314595 RATIO=  1.313
          TRIM/QA LAMBDA FOR NON-TS MODES =  -4.60909479
          TRIM/QA STEP HAS LENGTH         =   0.500000
          RADIUS OF STEP TAKEN=   0.50000  CURRENT TRUST RADIUS=   0.50000

 BEGINNING GEOMETRY SEARCH POINT NSERCH=   6 ...

 COORDINATES OF ALL ATOMS ARE (ANGS)
   ATOM   CHARGE       X              Y              Z
 ------------------------------------------------------------
 O           8.0  -0.0961122662  -0.1815550059   0.0000000000
 H           1.0  -0.8775484595   0.8699450936   0.0000000000
 H           1.0  -0.5793833443  -1.1407573037   0.0000000000

          INTERNUCLEAR DISTANCES (ANGS.)
          ------------------------------

                1 O          2 H          3 H     

   1 O       0.0000000    1.3100744 *  1.0740670 *
   2 H       1.3100744 *  0.0000000    2.0326895 *
   3 H       1.0740670 *  2.0326895 *  0.0000000  

  * ... LESS THAN  3.000

 ...... END OF ONE-ELECTRON INTEGRALS ......
 CPU     0: STEP CPU TIME=     0.01 TOTAL CPU TIME=          2.1 (      0.0 MIN)
 TOTAL WALL CLOCK TIME=          3.1 SECONDS, CPU UTILIZATION IS    67.74%
  ...... END OF TWO-ELECTRON INTEGRALS .....
 CPU     0: STEP CPU TIME=     0.01 TOTAL CPU TIME=          2.1 (      0.0 MIN)
 TOTAL WALL CLOCK TIME=          3.1 SECONDS, CPU UTILIZATION IS    66.98%

          --------------------------
             R-B3LYP SCF CALCULATION
          --------------------------
         DENSITY MATRIX CONVERGENCE THRESHOLD=  4.00E-04
     COARSE -> FINE DFT GRID SWITCH THRESHOLD=  6.00E-03 (SWITCH IN $DFT)
                   HF -> DFT SWITCH THRESHOLD=  5.00E-03 (SWOFF IN $DFT)

 DIRECT SCF CALCULATION, SCHWRZ=T   FDIFF=T,  DIRTHR=  0.00E+00 NITDIR=10

 DFT CODE IS SWITCHING FROM THE FINE GRID NRAD= 96,  NLEB=  302
                      TO THE COARSE GRID NRAD0= 24, NLEB0=  110

                                                                                                                   NONZERO     BLOCKS
 ITER EX DEM     TOTAL ENERGY        E CHANGE  DENSITY CHANGE    DIIS ERROR      VIR. SHIFT       DAMPING        INTEGRALS    SKIPPED
          * * *   INITIATING DIIS PROCEDURE   * * *
   1  0  0      -76.2831286524   -76.2831286524   0.113963875   0.121742414     0.000000000     1.000000000          19819          0
   2  1  0      -76.3152341333    -0.0321054809   0.072364077   0.052207018     0.000000000     1.000000000          19819          0
   3  2  0      -76.3105710637     0.0046630696   0.054452570   0.070171869     0.000000000     1.000000000          19819          0
   4  3  0      -76.3194197003    -0.0088486366   0.004158708   0.004719894     0.000000000     1.000000000          19819          0
 DFT CODE IS SWITCHING BACK TO THE FINE GRID
          * * *   INITIATING DIIS PROCEDURE   * * *
   5  4  0      -76.3185823469     0.0008373534   0.000645799   0.000641480          19819          0
   6  5  0      -76.3185829593    -0.0000006124   0.000552879   0.000414568          19819          0
   7  6  0      -76.3185829335     0.0000000258   0.000314678   0.000438451          19819          0
   8  7  0      -76.3185832819    -0.0000003484   0.000029321   0.000026406          19794          1

          -----------------
          DENSITY CONVERGED
          -----------------
     TIME TO FORM FOCK OPERATORS=       0.2 SECONDS (       0.0 SEC/ITER)
     FOCK TIME ON FIRST ITERATION=       0.0, LAST ITERATION=       0.0
     TIME TO SOLVE SCF EQUATIONS=       0.0 SECONDS (       0.0 SEC/ITER)

 FINAL R-B3LYP ENERGY IS      -76.3185832819 AFTER   8 ITERATIONS
 DFT EXCHANGE + CORRELATION ENERGY =        -7.3664995611
 TOTAL ELECTRON NUMBER             =        10.0000018252
 ...... END OF RHF CALCULATION ......
 CPU     0: STEP CPU TIME=     0.18 TOTAL CPU TIME=          2.3 (      0.0 MIN)
 TOTAL WALL CLOCK TIME=          3.4 SECONDS, CPU UTILIZATION IS    67.35%
 ..... END OF 1-ELECTRON GRADIENT ......
 CPU     0: STEP CPU TIME=     0.01 TOTAL CPU TIME=          2.3 (      0.0 MIN)
 TOTAL WALL CLOCK TIME=          3.4 SECONDS, CPU UTILIZATION IS    67.45%
 MEMORY FOR GRID POINT CONTRIBUTIONS TO THE DFT GRADIENT=    136239 WORDS.
 CPU     0: STEP CPU TIME=     0.03 TOTAL CPU TIME=          2.3 (      0.0 MIN)
 TOTAL WALL CLOCK TIME=          3.5 SECONDS, CPU UTILIZATION IS    67.34%
 ...... END OF 2-ELECTRON GRADIENT ......
 CPU     0: STEP CPU TIME=     0.00 TOTAL CPU TIME=          2.3 (      0.0 MIN)
 TOTAL WALL CLOCK TIME=          3.5 SECONDS, CPU UTILIZATION IS    67.34%

          NSERCH=  6     ENERGY=     -76.3185833

                                 -----------------------
                                 GRADIENT (HARTREE/BOHR)
                                 -----------------------
        ATOM     ZNUC       DE/DX         DE/DY         DE/DZ
 --------------------------------------------------------------
    1  O            8.0     0.0756289    -0.0319200     0.0000000
    2  H            1.0    -0.0592941     0.1048190     0.0000000
    3  H            1.0    -0.0163348    -0.0728990     0.0000000

          MAXIMUM GRADIENT = 0.1048190    RMS GRADIENT = 0.0545920

 NSERCH:   6  E=      -76.3185832819  GRAD. MAX=  0.1048190  R.M.S.=  0.0545920

          HESSIAN UPDATED USING THE BFGS FORMULA
             ACTUAL ENERGY CHANGE WAS   0.0336195601
          PREDICTED ENERGY CHANGE WAS  -0.5999256994 RATIO= -0.056
          MIN SEARCH, CORRECT HESSIAN, TRYING PURE NR STEP
               NR STEP HAS LENGTH         =4741.575438
          TRIM/QA LAMBDA FOR NON-TS MODES =  -0.53148402
          TRIM/QA STEP HAS LENGTH         =   0.250000
          RADIUS OF STEP TAKEN=   0.25000  CURRENT TRUST RADIUS=   0.25000

 BEGINNING GEOMETRY SEARCH POINT NSERCH=   7 ...

 COORDINATES OF ALL ATOMS ARE (ANGS)
   ATOM   CHARGE       X              Y              Z
 ------------------------------------------------------------
 O           8.0  -0.1488286335  -0.1835243767   0.0000000000
 H           1.0  -0.8410090029   0.7899355579   0.0000000000
 H           1.0  -0.5632064336  -1.0587783971   0.0000000000

          INTERNUCLEAR DISTANCES (ANGS.)
          ------------------------------

                1 O          2 H          3 H     

   1 O       0.0000000    1.1944613 *  0.9683897 *
   2 H       1.1944613 *  0.0000000    1.8694699 *
   3 H       0.9683897 *  1.8694699 *  0.0000000  

  * ... LESS THAN  3.000

 ...... END OF ONE-ELECTRON INTEGRALS ......
 CPU     0: STEP CPU TIME=     0.01 TOTAL CPU TIME=          2.3 (      0.0 MIN)
 TOTAL WALL CLOCK TIME=          3.5 SECONDS, CPU UTILIZATION IS    67.44%
  ...... END OF TWO-ELECTRON INTEGRALS .....
 CPU     0: STEP CPU TIME=     0.01 TOTAL CPU TIME=          2.4 (      0.0 MIN)
 TOTAL WALL CLOCK TIME=          3.5 SECONDS, CPU UTILIZATION IS    67.53%

          --------------------------
             R-B3LYP SCF CALCULATION
          --------------------------
         DENSITY MATRIX CONVERGENCE THRESHOLD=  4.00E-04
     COARSE -> FINE DFT GRID SWITCH THRESHOLD=  6.00E-03 (SWITCH IN $DFT)
                   HF -> DFT SWITCH THRESHOLD=  5.00E-03 (SWOFF IN $DFT)

 DIRECT SCF CALCULATION, SCHWRZ=T   FDIFF=T,  DIRTHR=  0.00E+00 NITDIR=10

 DFT CODE IS SWITCHING FROM THE FINE GRID NRAD= 96,  NLEB=  302
                      TO THE COARSE GRID NRAD0= 24, NLEB0=  110

                                                                                                                   NONZERO     BLOCKS
 ITER EX DEM     TOTAL ENERGY        E CHANGE  DENSITY CHANGE    DIIS ERROR      VIR. SHIFT       DAMPING        INTEGRALS    SKIPPED
          * * *   INITIATING DIIS PROCEDURE   * * *
   1  0  0      -76.3451033080   -76.3451033080   0.052001350   0.047277181     0.000000000     1.000000000          19819          0
   2  1  0      -76.3487855358    -0.0036822278   0.037188675   0.037065301     0.000000000     1.000000000          19819          0
   3  2  0      -76.3496301977    -0.0008446619   0.019090766   0.026176619     0.000000000     1.000000000          19819          0
   4  3  0      -76.3507586119    -0.0011284142   0.000588683   0.000572168     0.000000000     1.000000000          19819          0
 DFT CODE IS SWITCHING BACK TO THE FINE GRID
          * * *   INITIATING DIIS PROCEDURE   * * *
   5  4  0      -76.3512186380    -0.0004600261   0.000651339   0.000661411          19819          0
   6  5  0      -76.3512194839    -0.0000008459   0.000286457   0.000188872          19819          0
   7  6  0      -76.3512194294     0.0000000545   0.000184588   0.000275160          19819          0

          -----------------
          DENSITY CONVERGED
          -----------------
     TIME TO FORM FOCK OPERATORS=       0.1 SECONDS (       0.0 SEC/ITER)
     FOCK TIME ON FIRST ITERATION=       0.0, LAST ITERATION=       0.0
     TIME TO SOLVE SCF EQUATIONS=       0.0 SECONDS (       0.0 SEC/ITER)

 FINAL R-B3LYP ENERGY IS      -76.3512194294 AFTER   7 ITERATIONS
 DFT EXCHANGE + CORRELATION ENERGY =        -7.4261985879
 TOTAL ELECTRON NUMBER             =        10.0000012381
 ...... END OF RHF CALCULATION ......
 CPU     0: STEP CPU TIME=     0.14 TOTAL CPU TIME=          2.5 (      0.0 MIN)
 TOTAL WALL CLOCK TIME=          3.7 SECONDS, CPU UTILIZATION IS    67.48%
 ..... END OF 1-ELECTRON GRADIENT ......
 CPU     0: STEP CPU TIME=     0.02 TOTAL CPU TIME=          2.5 (      0.0 MIN)
 TOTAL WALL CLOCK TIME=          3.7 SECONDS, CPU UTILIZATION IS    67.84%
 MEMORY FOR GRID POINT CONTRIBUTIONS TO THE DFT GRADIENT=    136239 WORDS.
 CPU     0: STEP CPU TIME=     0.02 TOTAL CPU TIME=          2.5 (      0.0 MIN)
 TOTAL WALL CLOCK TIME=          3.7 SECONDS, CPU UTILIZATION IS    67.65%
 ...... END OF 2-ELECTRON GRADIENT ......
 CPU     0: STEP CPU TIME=     0.00 TOTAL CPU TIME=          2.5 (      0.0 MIN)
 TOTAL WALL CLOCK TIME=          3.7 SECONDS, CPU UTILIZATION IS    67.65%

          NSERCH=  7     ENERGY=     -76.3512194

                                 -----------------------
                                 GRADIENT (HARTREE/BOHR)
                                 -----------------------
        ATOM     ZNUC       DE/DX         DE/DY         DE/DZ
 --------------------------------------------------------------
    1  O            8.0     0.0377196    -0.0932320     0.0000000
    2  H            1.0    -0.0542630     0.1032003     0.0000000
    3  H            1.0     0.0165434    -0.0099683     0.0000000

          MAXIMUM GRADIENT = 0.1032003    RMS GRADIENT = 0.0517288

 NSERCH:   7  E=      -76.3512194294  GRAD. MAX=  0.1032003  R.M.S.=  0.0517288

          HESSIAN UPDATED USING THE BFGS FORMULA
             ACTUAL ENERGY CHANGE WAS  -0.0326361475
          PREDICTED ENERGY CHANGE WAS  -0.0361841207 RATIO=  0.902
          MIN SEARCH, CORRECT HESSIAN, TRYING PURE NR STEP
               NR STEP HAS LENGTH         =2149.510582
          TRIM/QA LAMBDA FOR NON-TS MODES =  -0.30188523
          TRIM/QA STEP HAS LENGTH         =   0.500000
          RADIUS OF STEP TAKEN=   0.50000  CURRENT TRUST RADIUS=   0.50000

 BEGINNING GEOMETRY SEARCH POINT NSERCH=   8 ...

 COORDINATES OF ALL ATOMS ARE (ANGS)
   ATOM   CHARGE       X              Y              Z
 ------------------------------------------------------------
 O           8.0  -0.2324040231  -0.0472904246   0.0000000000
 H           1.0  -0.7436937816   0.6088501688   0.0000000000
 H           1.0  -0.5769462652  -1.0139269601   0.0000000000

          INTERNUCLEAR DISTANCES (ANGS.)
          ------------------------------

                1 O          2 H          3 H     

   1 O       0.0000000    0.8318279 *  1.0262044 *
   2 H       0.8318279 *  0.0000000    1.6313217 *
   3 H       1.0262044 *  1.6313217 *  0.0000000  

  * ... LESS THAN  3.000

 ...... END OF ONE-ELECTRON INTEGRALS ......
 CPU     0: STEP CPU TIME=     0.01 TOTAL CPU TIME=          2.5 (      0.0 MIN)
 TOTAL WALL CLOCK TIME=          3.8 SECONDS, CPU UTILIZATION IS    67.73%
  ...... END OF TWO-ELECTRON INTEGRALS .....
 CPU     0: STEP CPU TIME=     0.00 TOTAL CPU TIME=          2.5 (      0.0 MIN)
 TOTAL WALL CLOCK TIME=          3.8 SECONDS, CPU UTILIZATION IS    67.55%

          --------------------------
             R-B3LYP SCF CALCULATION
          --------------------------
         DENSITY MATRIX CONVERGENCE THRESHOLD=  4.00E-04
     COARSE -> FINE DFT GRID SWITCH THRESHOLD=  6.00E-03 (SWITCH IN $DFT)
                   HF -> DFT SWITCH THRESHOLD=  5.00E-03 (SWOFF IN $DFT)

 DIRECT SCF CALCULATION, SCHWRZ=T   FDIFF=T,  DIRTHR=  0.00E+00 NITDIR=10

 DFT CODE IS SWITCHING FROM THE FINE GRID NRAD= 96,  NLEB=  302
                      TO THE COARSE GRID NRAD0= 24, NLEB0=  110

                                                                                                                   NONZERO     BLOCKS
 ITER EX DEM     TOTAL ENERGY        E CHANGE  DENSITY CHANGE    DIIS ERROR      VIR. SHIFT       DAMPING        INTEGRALS    SKIPPED
          * * *   INITIATING DIIS PROCEDURE   * * *
   1  0  0      -76.3200773184   -76.3200773184   0.124307065   0.123203317     0.000000000     1.000000000          19819          0
   2  1  0      -76.3512447852    -0.0311674668   0.075724485   0.058362487     0.000000000     1.000000000          19819          0
   3  2  0      -76.3526784354    -0.0014336502   0.036029856   0.054676080     0.000000000     1.000000000          19819          0
   4  3  0      -76.3574310814    -0.0047526459   0.002095415   0.002566581     0.000000000     1.000000000          19819          0
 DFT CODE IS SWITCHING BACK TO THE FINE GRID
          * * *   INITIATING DIIS PROCEDURE   * * *
   5  4  0      -76.3564876106     0.0009434707   0.000674974   0.000748748          19819          0
   6  5  0      -76.3564886938    -0.0000010831   0.000266562   0.000218241          19819          0
   7  6  0      -76.3564887194    -0.0000000257   0.000156229   0.000221150          19819          0

          -----------------
          DENSITY CONVERGED
          -----------------
     TIME TO FORM FOCK OPERATORS=       0.1 SECONDS (       0.0 SEC/ITER)
[...]
 CPU     0: STEP CPU TIME=     0.00 TOTAL CPU TIME=          9.5 (      0.2 MIN)
 TOTAL WALL CLOCK TIME=         13.1 SECONDS, CPU UTILIZATION IS    72.23%

          --------------------------
             R-B3LYP SCF CALCULATION
          --------------------------
         DENSITY MATRIX CONVERGENCE THRESHOLD=  2.00E-05
     COARSE -> FINE DFT GRID SWITCH THRESHOLD=  3.00E-04 (SWITCH IN $DFT)
                   HF -> DFT SWITCH THRESHOLD=  5.00E-03 (SWOFF IN $DFT)

 DIRECT SCF CALCULATION, SCHWRZ=T   FDIFF=T,  DIRTHR=  0.00E+00 NITDIR=10

 DFT CODE IS SWITCHING FROM THE FINE GRID NRAD= 96,  NLEB=  302
                      TO THE COARSE GRID NRAD0= 24, NLEB0=  110

                                                                                                                   NONZERO     BLOCKS
 ITER EX DEM     TOTAL ENERGY        E CHANGE  DENSITY CHANGE    DIIS ERROR      VIR. SHIFT       DAMPING        INTEGRALS    SKIPPED
          * * *   INITIATING DIIS PROCEDURE   * * *
   1  0  0      -76.3873061910   -76.3873061910   0.002144838   0.001528372     0.000000000     1.000000000          19819          0
   2  1  0      -76.3873128955    -0.0000067045   0.000775606   0.000586580     0.000000000     1.000000000          19819          0
   3  2  0      -76.3873127637     0.0000001318   0.000426261   0.000686563     0.000000000     1.000000000          19819          0
   4  3  0      -76.3873134059    -0.0000006422   0.000030551   0.000038738     0.000000000     1.000000000          19819          0
 DFT CODE IS SWITCHING BACK TO THE FINE GRID
          * * *   INITIATING DIIS PROCEDURE   * * *
   5  4  0      -76.3868679703     0.0004454356   0.000471416   0.000704661          19819          0
   6  5  0      -76.3868682889    -0.0000003186   0.000178959   0.000123225          19819          0
   7  6  0      -76.3868682736     0.0000000153   0.000095932   0.000165320          19819          0
   8  7  0      -76.3868683090    -0.0000000354   0.000003608   0.000004507          19819          0
   9  8  0      -76.3868683090    -0.0000000000   0.000000262   0.000000435          19819          0

          -----------------
          DENSITY CONVERGED
          -----------------
     TIME TO FORM FOCK OPERATORS=       0.1 SECONDS (       0.0 SEC/ITER)
     FOCK TIME ON FIRST ITERATION=       0.0, LAST ITERATION=       0.0
     TIME TO SOLVE SCF EQUATIONS=       0.0 SECONDS (       0.0 SEC/ITER)

 FINAL R-B3LYP ENERGY IS      -76.3868683090 AFTER   9 ITERATIONS
 DFT EXCHANGE + CORRELATION ENERGY =        -7.4962850926
 TOTAL ELECTRON NUMBER             =         9.9999985461
 ...... END OF RHF CALCULATION ......
 CPU     0: STEP CPU TIME=     0.18 TOTAL CPU TIME=          9.6 (      0.2 MIN)
 TOTAL WALL CLOCK TIME=         13.3 SECONDS, CPU UTILIZATION IS    72.39%
 ..... END OF 1-ELECTRON GRADIENT ......
 CPU     0: STEP CPU TIME=     0.01 TOTAL CPU TIME=          9.7 (      0.2 MIN)
 TOTAL WALL CLOCK TIME=         13.3 SECONDS, CPU UTILIZATION IS    72.41%
 MEMORY FOR GRID POINT CONTRIBUTIONS TO THE DFT GRADIENT=    136230 WORDS.
 CPU     0: STEP CPU TIME=     0.02 TOTAL CPU TIME=          9.7 (      0.2 MIN)
 TOTAL WALL CLOCK TIME=         13.4 SECONDS, CPU UTILIZATION IS    72.40%
 ...... END OF 2-ELECTRON GRADIENT ......
 CPU     0: STEP CPU TIME=     0.00 TOTAL CPU TIME=          9.7 (      0.2 MIN)
 TOTAL WALL CLOCK TIME=         13.4 SECONDS, CPU UTILIZATION IS    72.40%

 UNITS ARE HARTREE/BOHR    E'X               E'Y               E'Z 
    1 O                0.001703318       0.004082831       0.000000000
    2 H                0.000261649       0.000214528       0.000000000
    3 H               -0.001964967      -0.004297359       0.000000000
  $VIB   
          IVIB=   2 IATOM=   3 ICOORD=   2 E=      -76.3868683090
  1.703318068E-03 4.082831486E-03 0.000000000E+00 2.616485555E-04 2.145276697E-04
  0.000000000E+00-1.964966624E-03-4.297359156E-03 0.000000000E+00
 -2.379873875E+00-3.076052916E-01 1.981356971E-16
1   ATOM  3
                                        -------------------
   COORD  3                             NUCLEAR COORDINATES
                                        -------------------
     VIB  2

                       ATOM             X              Y              Z

                 1  O               -0.268876      -0.195210       0.000000
                 2  H               -1.518186       1.134268       0.000000
                 3  H               -1.147766      -1.793908      -0.010000
 ...... END OF ONE-ELECTRON INTEGRALS ......
 CPU     0: STEP CPU TIME=     0.01 TOTAL CPU TIME=          9.7 (      0.2 MIN)
 TOTAL WALL CLOCK TIME=         13.4 SECONDS, CPU UTILIZATION IS    72.42%
  ...... END OF TWO-ELECTRON INTEGRALS .....
 CPU     0: STEP CPU TIME=     0.01 TOTAL CPU TIME=          9.7 (      0.2 MIN)
 TOTAL WALL CLOCK TIME=         13.4 SECONDS, CPU UTILIZATION IS    72.44%

          --------------------------
             R-B3LYP SCF CALCULATION
          --------------------------
         DENSITY MATRIX CONVERGENCE THRESHOLD=  2.00E-05
     COARSE -> FINE DFT GRID SWITCH THRESHOLD=  3.00E-04 (SWITCH IN $DFT)
                   HF -> DFT SWITCH THRESHOLD=  5.00E-03 (SWOFF IN $DFT)

 DIRECT SCF CALCULATION, SCHWRZ=T   FDIFF=T,  DIRTHR=  0.00E+00 NITDIR=10

 DFT CODE IS SWITCHING FROM THE FINE GRID NRAD= 96,  NLEB=  302
                      TO THE COARSE GRID NRAD0= 24, NLEB0=  110

                                                                                                                   NONZERO     BLOCKS
 ITER EX DEM     TOTAL ENERGY        E CHANGE  DENSITY CHANGE    DIIS ERROR      VIR. SHIFT       DAMPING        INTEGRALS    SKIPPED
          * * *   INITIATING DIIS PROCEDURE   * * *
   1  0  0      -76.3872366437   -76.3872366437   0.002294793   0.001496661     0.000000000     1.000000000          30075          0
   2  1  0      -76.3872413468    -0.0000047031   0.000226410   0.000120226     0.000000000     1.000000000          30075          0
 DFT CODE IS SWITCHING BACK TO THE FINE GRID
          * * *   INITIATING DIIS PROCEDURE   * * *
   3  2  0      -76.3868895831     0.0003517637   0.000405680   0.000558209          30075          0
   4  3  0      -76.3868898710    -0.0000002880   0.000162379   0.000131286          30075          0
   5  4  0      -76.3868898538     0.0000000172   0.000104509   0.000168285          30075          0
   6  5  0      -76.3868898929    -0.0000000390   0.000002948   0.000005640          30075          0
   7  6  0      -76.3868898929    -0.0000000000   0.000000258   0.000000365          30075          0

          -----------------
          DENSITY CONVERGED
          -----------------
     TIME TO FORM FOCK OPERATORS=       0.1 SECONDS (       0.0 SEC/ITER)
     FOCK TIME ON FIRST ITERATION=       0.0, LAST ITERATION=       0.0
     TIME TO SOLVE SCF EQUATIONS=       0.0 SECONDS (       0.0 SEC/ITER)

 FINAL R-B3LYP ENERGY IS      -76.3868898929 AFTER   7 ITERATIONS
 DFT EXCHANGE + CORRELATION ENERGY =        -7.4980347524
 TOTAL ELECTRON NUMBER             =         9.9999985150
 ...... END OF RHF CALCULATION ......
 CPU     0: STEP CPU TIME=     0.12 TOTAL CPU TIME=          9.8 (      0.2 MIN)
 TOTAL WALL CLOCK TIME=         13.5 SECONDS, CPU UTILIZATION IS    72.63%
 ..... END OF 1-ELECTRON GRADIENT ......
 CPU     0: STEP CPU TIME=     0.00 TOTAL CPU TIME=          9.8 (      0.2 MIN)
 TOTAL WALL CLOCK TIME=         13.5 SECONDS, CPU UTILIZATION IS    72.63%
 MEMORY FOR GRID POINT CONTRIBUTIONS TO THE DFT GRADIENT=    136230 WORDS.
 CPU     0: STEP CPU TIME=     0.03 TOTAL CPU TIME=          9.8 (      0.2 MIN)
 TOTAL WALL CLOCK TIME=         13.5 SECONDS, CPU UTILIZATION IS    72.75%
 ...... END OF 2-ELECTRON GRADIENT ......
 CPU     0: STEP CPU TIME=     0.00 TOTAL CPU TIME=          9.8 (      0.2 MIN)
 TOTAL WALL CLOCK TIME=         13.5 SECONDS, CPU UTILIZATION IS    72.69%

 UNITS ARE HARTREE/BOHR    E'X               E'Y               E'Z 
    1 O               -0.000005182       0.000010163       0.000000018
    2 H                0.000005991      -0.000000882       0.000000022
    3 H               -0.000000809      -0.000009281      -0.000000040
  $VIB   
          IVIB=   2 IATOM=   3 ICOORD=   3 E=      -76.3868898929
 -5.182135667E-06 1.016294726E-05 1.834372260E-08 5.991257679E-06-8.819200578E-07
  2.168046885E-08-8.091220114E-07-9.281027197E-06-4.002419146E-08
 -2.382088248E+00-3.013312203E-01-1.119383226E-02
 ...... END OF NUMERICAL HESSIAN CALCULATION ......
 CPU     0: STEP CPU TIME=     0.03 TOTAL CPU TIME=          9.9 (      0.2 MIN)
 TOTAL WALL CLOCK TIME=         13.6 SECONDS, CPU UTILIZATION IS    72.81%

          ---------------
          ENERGY GRADIENT
          ---------------

 UNITS ARE HARTREE/BOHR    E'X               E'Y               E'Z 
    1 O               -0.000011796      -0.000002916       0.000000000
    2 H                0.000005646      -0.000000643       0.000000000
    3 H                0.000006150       0.000003559       0.000000000

          -------------------------------
          CARTESIAN FORCE CONSTANT MATRIX
          -------------------------------

                                   1                          2
                               O                          H         
                          X        Y        Z        X        Y        Z
  1   O            X 0.417270-0.038073-0.000000-0.266337 0.213959-0.000000
                   Y-0.038073 0.713415-0.000000 0.272787-0.299019-0.000000
                   Z-0.000000-0.000000 0.000007 0.000000 0.000000-0.000003
  2   H            X-0.266337 0.272787 0.000000 0.258562-0.247156 0.000000
                   Y 0.213959-0.299019 0.000000-0.247156 0.320724-0.000000
                   Z-0.000000-0.000000-0.000003 0.000000-0.000000 0.000005
  3   H            X-0.150935-0.234715 0.000000 0.007775 0.033198 0.000000
                   Y-0.175890-0.414402-0.000000-0.025631-0.021706 0.000000
                   Z-0.000000 0.000000-0.000002 0.000000 0.000000-0.000002

                                   3
                               H         
                          X        Y        Z
  3   H            X 0.143162 0.201520 0.000000
                   Y 0.201520 0.436114-0.000000
                   Z 0.000000-0.000000 0.000004

          ------------------------          ----------------
          DIPOLE DERIVATIVE TENSOR          (DEBYE/ANGSTROM)
          ------------------------          ----------------

        ATOM                 MU-X           MU-Y           MU-Z
     O          D/DX    -1.860954519    0.096448059    0.000000000
                D/DY     0.096452789   -2.610758695    0.000000000
                D/DZ     0.000000000    0.000000000   -4.230431384
     H          D/DX     0.809579611    0.520531069   -0.000000000
                D/DY     0.323167738    1.426400276    0.000000000
                D/DZ     0.000000000    0.000000000    2.115248593
     H          D/DX     1.051311076   -0.616981993    0.000000000
                D/DY    -0.419627178    1.184624313   -0.000000000
                D/DZ    -0.000000000    0.000000000    2.115327572

          --------------------------------------------------------
          NORMAL COORDINATE ANALYSIS IN THE HARMONIC APPROXIMATION
          --------------------------------------------------------

          ATOMIC WEIGHTS (AMU)

    1     O                15.99491
    2     H                 1.00782
    3     H                 1.00782

 MODES    1 TO    6 ARE TAKEN AS ROTATIONS AND TRANSLATIONS.

 ANALYZING SYMMETRY OF NORMAL MODES...

     FREQUENCIES IN CM**-1, IR INTENSITIES IN DEBYE**2/AMU-ANGSTROM**2,
     REDUCED MASSES IN AMU.

                            1           2           3           4           5
       FREQUENCY:        27.53        0.55        0.01        0.12        8.42  
        SYMMETRY:         A           A           A           A           A   
    REDUCED MASS:      1.04426     4.82349     6.00362     5.95404     1.17708
    IR INTENSITY:      3.19252     0.04160     0.00000     0.00006     9.78100

  1   O            X -0.00571844  0.00000000  0.22985429  0.05189288 -0.00000000
                   Y  0.04790669  0.00000000 -0.05186688  0.22964542 -0.00000000
                   Z -0.00000000  0.22974489 -0.00000000 -0.00000000 -0.09795229
  2   H            X -0.52909254  0.00000000  0.22985018  0.05419452 -0.00000000
                   Y -0.44397690  0.00000000 -0.05187105  0.23180942 -0.00000000
                   Z -0.00000000  0.27442647 -0.00000000 -0.00000000  0.54795117
  3   H            X  0.62392255  0.00000000  0.22985077  0.04911935 -0.00000000
                   Y -0.29825979  0.00000000 -0.05186446  0.23116670 -0.00000000
                   Z -0.00000000  0.28147132 -0.00000000 -0.00000000  0.73465041

 TRANS. SAYVETZ    X  0.00410618  0.00000000  4.13979681  0.93414427 -0.00000000
                   Y  0.01821857  0.00000000 -0.93415330  4.13975672 -0.00000000
                   Z -0.00000000  4.23499652 -0.00000000 -0.00000000 -0.27410014
               TOTAL  0.01867557  4.23499652  4.24388501  4.24384392  0.27410014

   ROT. SAYVETZ    X  0.00000000 -0.02201023  0.00000000  0.00000000 -0.45361343
                   Y -0.00000000  0.09050455 -0.00000000 -0.00000000  1.37328852
                   Z  2.53949089 -0.00000000  0.00000285 -0.01117535  0.00000000
               TOTAL  2.53949089  0.09314249  0.00000285  0.01117535  1.44626641

                            6           7           8           9
       FREQUENCY:        13.29     1508.67     3793.65     3946.86  
        SYMMETRY:         A           A           A           A   
    REDUCED MASS:      1.00998     1.08586     1.04222     1.08528
    IR INTENSITY:      0.17569     2.10090     0.10508     1.32843

  1   O            X -0.00000000 -0.06869626 -0.04655414  0.00865210
                   Y -0.00000000 -0.00870210 -0.00587223 -0.06846486
                   Z -0.01193832  0.00000000  0.00000000  0.00000000
  2   H            X  0.00000000  0.49565460  0.44270503 -0.46353798
                   Y  0.00000000  0.46106027 -0.53186871  0.49318674
                   Z  0.78528681 -0.00000000  0.00000000  0.00000000
  3   H            X  0.00000000  0.59463476  0.29614139  0.32622399
                   Y -0.00000000 -0.32294990  0.62507622  0.59340709
                   Z -0.61098152  0.00000000  0.00000000 -0.00000000

 TRANS. SAYVETZ    X -0.00000000  0.00003037 -0.00000132  0.00000102
                   Y -0.00000000  0.00000183  0.00001108  0.00000718
                   Z -0.01528313  0.00000000  0.00000000 -0.00000000
               TOTAL  0.01528313  0.00003043  0.00001116  0.00000726

   ROT. SAYVETZ    X  2.03637868 -0.00000000  0.00000000  0.00000000
                   Y  0.44937619  0.00000000  0.00000000 -0.00000000
                   Z -0.00000000 -0.00049507 -0.00002942  0.00011657
               TOTAL  2.08537217  0.00049507  0.00002942  0.00011657

 REFERENCE ON SAYVETZ CONDITIONS - A. SAYVETZ, J.CHEM.PHYS., 7, 383-389(1939).

 NOTE - THE MODES J,K ARE ORTHONORMALIZED ACCORDING TO
 SUM ON I   M(I) * (X(I,J)*X(I,K) + Y(I,J)*Y(I,K) + Z(I,J)*Z(I,K)) = DELTA(J,K)

  MODE FREQ(CM**-1)  SYMMETRY  RED. MASS  IR INTENS.
     1      27.535    A        1.044255    3.192516
     2       0.547    A        4.823491    0.041601
     3       0.011    A        6.003620    0.000000
     4       0.121    A        5.954036    0.000063
     5       8.415    A        1.177085    9.781004
     6      13.290    A        1.009982    0.175691
     7    1508.667    A        1.085856    2.100898
     8    3793.652    A        1.042216    0.105076
     9    3946.860    A        1.085285    1.328435

     -------------------------------
     THERMOCHEMISTRY AT T=  298.15 K
     -------------------------------

 USING IDEAL GAS, RIGID ROTOR, HARMONIC NORMAL MODE APPROXIMATIONS.
 P=  1.01325E+05 PASCAL.
 ALL FREQUENCIES ARE SCALED BY   1.00000
 THE MOMENTS OF INERTIA ARE (IN AMU*BOHR**2)
              2.05934             4.38979             6.44914
 THE ROTATIONAL SYMMETRY NUMBER IS  1.0
 THE ROTATIONAL CONSTANTS ARE (IN GHZ)
    875.56417   410.74546   279.58588
      7 -      9 VIBRATIONAL MODES ARE USED IN THERMOCHEMISTRY.
 THE HARMONIC ZERO POINT ENERGY IS (SCALED BY   1.000)
        0.021071 HARTREE/MOLECULE     4624.589618 CM**-1/MOLECULE 
       13.222378 KCAL/MOL               55.322432 KJ/MOL

               Q               LN Q
 ELEC.     1.00000E+00       0.000000
 TRANS.    3.00431E+06      14.915558
 ROT.      8.64329E+01       4.459368
 VIB.      1.00069E+00       0.000689
 TOT.      2.59850E+08      19.375615

              E         H         G         CV        CP        S
           KJ/MOL    KJ/MOL    KJ/MOL   J/MOL-K   J/MOL-K   J/MOL-K
 ELEC.      0.000     0.000     0.000     0.000     0.000     0.000
 TRANS.     3.718     6.197   -36.975    12.472    20.786   144.800
 ROT.       3.718     3.718   -11.055    12.472    12.472    49.549
 VIB.      55.335    55.335    55.321     0.304     0.304     0.047
 TOTAL     62.772    65.251     7.291    25.247    33.562   194.396
 VIB. THERMAL CORRECTION E(T)-E(0) = H(T)-H(0) =        12.443 J/MOL

              E         H         G         CV        CP        S
         KCAL/MOL  KCAL/MOL  KCAL/MOL CAL/MOL-K CAL/MOL-K CAL/MOL-K
 ELEC.      0.000     0.000     0.000     0.000     0.000     0.000
 TRANS.     0.889     1.481    -8.837     2.981     4.968    34.608
 ROT.       0.889     0.889    -2.642     2.981     2.981    11.842
 VIB.      13.225    13.225    13.222     0.073     0.073     0.011
 TOTAL     15.003    15.595     1.743     6.034     8.021    46.462
 VIB. THERMAL CORRECTION E(T)-E(0) = H(T)-H(0) =         2.974 CAL/MOL
 ......END OF NORMAL COORDINATE ANALYSIS......
 CPU     0: STEP CPU TIME=     0.00 TOTAL CPU TIME=          9.9 (      0.2 MIN)
 TOTAL WALL CLOCK TIME=         13.6 SECONDS, CPU UTILIZATION IS    72.70%
                580000  WORDS OF DYNAMIC MEMORY USED
 EXECUTION OF GAMESS TERMINATED NORMALLY Wed Apr 24 12:10:26 2024
 DDI: 263640 bytes (0.3 MB / 0 MWords) used by master data server.

 ----------------------------------------
 CPU timing information for all processes
 ========================================
 0: 6.70 + 3.960 = 10.31
 1: 6.433 + 0.317 = 6.751
 2: 6.286 + 0.333 = 6.619
 3: 6.314 + 0.285 = 6.600
 4: 6.477 + 0.268 = 6.745
 5: 6.314 + 0.307 = 6.621
 6: 6.185 + 0.292 = 6.477
 7: 5.902 + 0.270 = 6.173
 8: 0.164 + 0.56 = 0.220
 9: 0.121 + 0.35 = 0.156
 10: 0.118 + 0.31 = 0.150
 11: 0.151 + 0.15 = 0.166
 12: 0.259 + 0.40 = 0.300
 13: 0.180 + 0.26 = 0.206
 14: 0.180 + 0.19 = 0.200
 15: 0.149 + 0.25 = 0.174
 ----------------------------------------
else
unset echo
----- accounting info -----
Files used on the master node acn91 were:
-rw-------. 1 lever046 lever046     1010 Apr 24 12:10 /tmp/gms_h2o_b3lyp_nosmd_opt.F05
-rw-------. 1 lever046 lever046 65536000 Apr 24 12:10 /tmp/gms_h2o_b3lyp_nosmd_opt.F10
-rw-------. 1 lever046 lever046  1066896 Apr 24 12:10 /tmp/gms_h2o_b3lyp_nosmd_opt.F22
-rw-------. 1 lever046 lever046  1066896 Apr 24 12:10 /tmp/gms_h2o_b3lyp_nosmd_opt.F22.001
-rw-------. 1 lever046 lever046  1066896 Apr 24 12:10 /tmp/gms_h2o_b3lyp_nosmd_opt.F22.002
-rw-------. 1 lever046 lever046  1066896 Apr 24 12:10 /tmp/gms_h2o_b3lyp_nosmd_opt.F22.003
-rw-------. 1 lever046 lever046  1066896 Apr 24 12:10 /tmp/gms_h2o_b3lyp_nosmd_opt.F22.004
-rw-------. 1 lever046 lever046  1066896 Apr 24 12:10 /tmp/gms_h2o_b3lyp_nosmd_opt.F22.005
-rw-------. 1 lever046 lever046  1066896 Apr 24 12:10 /tmp/gms_h2o_b3lyp_nosmd_opt.F22.006
-rw-------. 1 lever046 lever046  1066896 Apr 24 12:10 /tmp/gms_h2o_b3lyp_nosmd_opt.F22.007
-rw-------. 1 lever046 lever046        6 Apr 24 12:10 /tmp/gms_h2o_b3lyp_nosmd_opt.nodes.mpd
ls: No match.
ls: No match.
ls: No match.
Wed Apr 24 12:10:29 CDT 2024
0.279u 0.323s 0:21.51 2.7%	0+0k 5344+840io 3pf+0w
