/home/lever046/lever046/psi4conda/etc/profile.d/conda.cshnconda: No such file or directory.
----- GAMESS execution script 'rungms' -----
This job is running on host cn0170
under operating system Linux at Wed Apr 24 12:03:53 CDT 2024
SLURM has assigned the following compute nodes to this run:
cn0170
Available scratch disk space (Kbyte units) at beginning of the job is
Filesystem           1K-blocks      Used Available Use% Mounted on
/dev/mapper/job_163404651_crypt
                       9982804     36892   9929528   1% /tmp
GAMESS temporary binary files will be written to /tmp
GAMESS supplementary output files will be written to /scratch.global/lever046/gamess/163404651
Copying input file gms_h2o_hf_nosmd_opt.inp to your run's scratch directory...
cp gms_h2o_hf_nosmd_opt.inp /tmp/gms_h2o_hf_nosmd_opt.F05
unset echo
setenv I_MPI_WAIT_MODE enable
setenv I_MPI_PIN disable
setenv I_MPI_DEBUG 0
setenv I_MPI_STATS 0
setenv I_MPI_DAT_LIBRARY libdat2.so
setenv I_MPI_SHM_LMT shm
unset echo
MPI kickoff will run GAMESS on 8 cores in 1 nodes.
The binary to be executed is /common/software/install/migrated/gamess/october_2019/gamess.00.x
MPI will run 8 compute processes and 8 data servers,
    placing 8 of each process type onto each node.
The scratch disk space on each node is /tmp, with free space
Filesystem           1K-blocks      Used Available Use% Mounted on
/dev/mapper/job_163404651_crypt
                       9982804     36904   9929516   1% /tmp
setenv I_MPI_HYDRA_ENV all
setenv I_MPI_PERHOST 16
unset echo
if ( impi == impi ) then
mpirun -hostfile /tmp/gms_h2o_hf_nosmd_opt.processes.mpd -np 16 /common/software/install/migrated/gamess/october_2019/gamess.00.x
srun: Job 163404651 step creation temporarily disabled, retrying (Requested nodes are busy)
srun: Step created for job 163404651
          ******************************************************
          *         GAMESS VERSION = 30 SEP 2019 (R2)          *
          *             FROM IOWA STATE UNIVERSITY             *
          * M.W.SCHMIDT, K.K.BALDRIDGE, J.A.BOATZ, S.T.ELBERT, *
          *   M.S.GORDON, J.H.JENSEN, S.KOSEKI, N.MATSUNAGA,   *
          *          K.A.NGUYEN, S.J.SU, T.L.WINDUS,           *
          *       TOGETHER WITH M.DUPUIS, J.A.MONTGOMERY       *
          *         J.COMPUT.CHEM.  14, 1347-1363(1993)        *
          **************** 64 BIT INTEL VERSION ****************

  SINCE 1993, STUDENTS AND POSTDOCS WORKING AT IOWA STATE UNIVERSITY
  AND ALSO IN THEIR VARIOUS JOBS AFTER LEAVING ISU HAVE MADE IMPORTANT
  CONTRIBUTIONS TO THE CODE:
     IVANA ADAMOVIC, CHRISTINE AIKENS, YURI ALEXEEV, POOJA ARORA,
     ANDREY ASADCHEV, ROB BELL, PRADIPTA BANDYOPADHYAY, JONATHAN BENTZ,
     COLLEEN BERTONI, BRETT BODE, KURT BRORSEN, CALEB CARLIN, GALINA CHABAN,
     WEI CHEN, CHEOL HO CHOI, PAUL DAY, ALBERT DEFUSCO, NUWAN DESILVA,
     TIM DUDLEY, DMITRI FEDOROV, ALEX FINDLATER, GRAHAM FLETCHER, 
     MARK FREITAG, KURT GLAESEMANN, EMILIE B GUIDEZ, ANASTASIA GUNINA, 
     DAN KEMP, SAROM SOK LEANG, GRANT MERRILL,
     NORIYUKI MINEZAWA, JONATHAN MULLIN,
     TAKESHI NAGATA, SEAN NEDD, HEATHER NETZLOFF, BOSILJKA NJEGIC, RYAN OLSON,
     MIKE PAK, BUU PHAM, DAVID POOLE,
     SPENCER PRUITT, LUKE ROSKOP, TOSAPORN SATTASATHUCHANA,
     JIM SHOEMAKER, LYUDMILA SLIPCHENKO,
     TONY SMITH, JIE SONG, TETSUYA TAKETSUGU, SIMON WEBB,
     JORGE LUIS GALVEZ VALLEJO, PENG XU, SOOHAENG YOO,
     FEDERICO ZAHARIEV

  ADDITIONAL CODE HAS BEEN PROVIDED BY COLLABORATORS IN OTHER GROUPS:
     IOWA STATE UNIVERSITY:
          JOE IVANIC, AARON WEST, LAIMUTIS BYTAUTAS, KLAUS RUEDENBERG
     UNIVERSITY OF TOKYO: KIMIHIKO HIRAO, TAKAHITO NAKAJIMA,
          TAKAO TSUNEDA, MUNEAKI KAMIYA, SUSUMU YANAGISAWA,
          KIYOSHI YAGI, MAHITO CHIBA, SEIKEN TOKURA, NAOAKI KAWAKAMI
     UNIVERSITY OF AARHUS: FRANK JENSEN
     UNIVERSITY OF IOWA: VISVALDAS KAIRYS, HUI LI
     NATIONAL INST. OF STANDARDS AND TECHNOLOGY: WALT STEVENS, DAVID GARMER
     UNIVERSITY OF PISA: BENEDETTA MENNUCCI, JACOPO TOMASI
     UNIVERSITY OF MEMPHIS: HENRY KURTZ, PRAKASHAN KORAMBATH
     UNIVERSITY OF ALBERTA: TOBY ZENG, MARIUSZ KLOBUKOWSKI
     UNIVERSITY OF NEW ENGLAND: MARK SPACKMAN
     MIE UNIVERSITY: HIROAKI UMEDA
     NAT. INST. OF ADVANCED INDUSTRIAL SCIENCE AND TECHNOLOGY: KAZUO KITAURA
     MICHIGAN STATE UNIVERSITY:
          KAROL KOWALSKI, MARTA WLOCH, JEFFREY GOUR, JESSE LUTZ,
          WEI LI, JUN SHEN, J. EMILIANO DEUSTUA, PIOTR PIECUCH
     UNIVERSITY OF MINNESOTA:
          ANDREW SAND, PRACHI SHARMA, YINAN SHU
     UNIVERSITY OF SILESIA: MONIKA MUSIAL, STANISLAW KUCHARSKI
     FACULTES UNIVERSITAIRES NOTRE-DAME DE LA PAIX:
          OLIVIER QUINET, BENOIT CHAMPAGNE
     UNIVERSITY OF CALIFORNIA - SANTA BARBARA: BERNARD KIRTMAN
     INSTITUTE FOR MOLECULAR SCIENCE:
          KAZUYA ISHIMURA, MICHIO KATOUDA, AND SHIGERU NAGASE
     UNIVERSITY OF NOTRE DAME: ANNA POMOGAEVA, DAN CHIPMAN
     KYUSHU UNIVERSITY:
          HARUYUKI NAKANO,
          FENG LONG GU, JACEK KORCHOWIEC, MARCIN MAKOWSKI, AND YURIKO AOKI,
          HIROTOSHI MORI AND EISAKU MIYOSHI
     PENNSYLVANIA STATE UNIVERSITY:
          TZVETELIN IORDANOV, CHET SWALINA, JONATHAN SKONE,
          SHARON HAMMES-SCHIFFER
     WASEDA UNIVERSITY:
          MASATO KOBAYASHI, TOMOKO AKAMA, TSUGUKI TOUMA,
          TAKESHI YOSHIKAWA, YASUHIRO IKABATA, JUNJI SEINO,
          YUYA NAKAJIMA, HIROMI NAKAI
     NANJING UNIVERSITY: SHUHUA LI
     UNIVERSITY OF NEBRASKA:
          PEIFENG SU, DEJUN SI, NANDUN THELLAMUREGE, YALI WANG, HUI LI
     UNIVERSITY OF ZURICH: ROBERTO PEVERATI, KIM BALDRIDGE
     N. COPERNICUS UNIVERSITY AND JACKSON STATE UNIVERSITY:
          MARIA BARYSZ
     UNIVERSITY OF COPENHAGEN: Jimmy Kromann, CASPER STEINMANN
     TOKYO INSTITUTE OF TECHNOLOGY: HIROYA NAKATA
     NAGOYA UNIVERSITY: YOSHIO NISHIMOTO, STEPHAN IRLE
     MOSCOW STATE UNIVERSITY: VLADIMIR MIRONOV
     A.N.NESMEYANOV INSTITUTE OF ORGANOELEMENT COMPOUNDS OF RUSSIAN ACADEMY OF SCIENCES:
          IGOR S. GERASIMOV
     JOHANNES KEPLER UNIVERSITY LINZ:
          CHRISTIAN FRIEDL


 PARALLEL VERSION RUNNING ON        8 PROCESSORS IN        1 NODES.

 EXECUTION OF GAMESS BEGUN Wed Apr 24 12:03:58 2024

            ECHO OF THE FIRST FEW INPUT CARDS -
 INPUT CARD> $BASIS GBASIS=N31 NGAUSS=6 NPFUNC=1 DIFFSP=.t. $END                            
 INPUT CARD> $CONTRL SCFTYP=RHF RUNTYP=OPTIMIZE ICHARG=0 MULT=1 MAXIT=200 $END              
 INPUT CARD> $FORCE METHOD=SEMINUM $END                                                     
 INPUT CARD> $SCF DIRSCF=.t. DAMP=.t. $END                                                  
 INPUT CARD> $STATPT HSSEND=.t. NSTEP=200 $END                                              
 INPUT CARD> $SYSTEM MWORDS=100 $END                                                        
 INPUT CARD> $DATA                                                                          
 INPUT CARD> Title                                                                          
 INPUT CARD> C1                                                                             
 INPUT CARD>    O   8.0    2.2186344E-01  6.4623884E-02  0.0000000E+00                      
 INPUT CARD>    H   1.0   -1.0869454E+00  1.3371949E+00  0.0000000E+00                      
 INPUT CARD>    H   1.0   -6.8796211E-01 -1.8541860E+00  0.0000000E+00                      
 INPUT CARD> $END                                                                           
 INPUT CARD>                                                                                
 INPUT CARD>                                                                                
  100000000 WORDS OF MEMORY AVAILABLE

     BASIS OPTIONS
     -------------
     GBASIS=N31          IGAUSS=       6      POLAR=POPN31  
     NDFUNC=       0     NFFUNC=       0     DIFFSP=       T
     NPFUNC=       1      DIFFS=       F     BASNAM=        


     RUN TITLE
     ---------
  Title                                                                          

 THE POINT GROUP OF THE MOLECULE IS C1      
 THE ORDER OF THE PRINCIPAL AXIS IS     0

 ATOM      ATOMIC                      COORDINATES (BOHR)
           CHARGE         X                   Y                   Z
 O           8.0     0.4192611083        0.1221214330        0.0000000000
 H           1.0    -2.0540289696        2.5269319532        0.0000000000
 H           1.0    -1.3000598778       -3.5039034703        0.0000000000

          INTERNUCLEAR DISTANCES (ANGS.)
          ------------------------------

                1 O          2 H          3 H     

   1 O       0.0000000    1.8254910 *  2.1235852 *
   2 H       1.8254910 *  0.0000000    3.2162245  
   3 H       2.1235852 *  3.2162245    0.0000000  

  * ... LESS THAN  3.000


     ATOMIC BASIS SET
     ----------------
 THE CONTRACTED PRIMITIVE FUNCTIONS HAVE BEEN UNNORMALIZED
 THE CONTRACTED BASIS FUNCTIONS ARE NOW NORMALIZED TO UNITY

  SHELL TYPE  PRIMITIVE        EXPONENT          CONTRACTION COEFFICIENT(S)

 O         

      1   S       1          5484.6716600    0.001831074430
      1   S       2           825.2349460    0.013950172200
      1   S       3           188.0469580    0.068445078098
      1   S       4            52.9645000    0.232714335992
      1   S       5            16.8975704    0.470192897984
      1   S       6             5.7996353    0.358520852987

      2   L       7            15.5396162   -0.110777549525    0.070874268231
      2   L       8             3.5999336   -0.148026262701    0.339752839147
      2   L       9             1.0137618    1.130767015354    0.727158577316

      3   L      10             0.2700058    1.000000000000    1.000000000000

      4   L      11             0.0845000    1.000000000000    1.000000000000

 H         

      5   S      12            18.7311370    0.033494604338
      5   S      13             2.8253944    0.234726953484
      5   S      14             0.6401217    0.813757326146

      6   S      15             0.1612778    1.000000000000

      7   P      16             1.1000000    1.000000000000

 H         

      8   S      17            18.7311370    0.033494604338
      8   S      18             2.8253944    0.234726953484
      8   S      19             0.6401217    0.813757326146

      9   S      20             0.1612778    1.000000000000

     10   P      21             1.1000000    1.000000000000

 TOTAL NUMBER OF BASIS SET SHELLS             =   10
 NUMBER OF CARTESIAN GAUSSIAN BASIS FUNCTIONS =   23
 NUMBER OF ELECTRONS                          =   10
 CHARGE OF MOLECULE                           =    0
 SPIN MULTIPLICITY                            =    1
 NUMBER OF OCCUPIED ORBITALS (ALPHA)          =    5
 NUMBER OF OCCUPIED ORBITALS (BETA )          =    5
 TOTAL NUMBER OF ATOMS                        =    3
 THE NUCLEAR REPULSION ENERGY IS        4.4771148018

     $CONTRL OPTIONS
     ---------------
 SCFTYP=RHF          RUNTYP=OPTIMIZE     EXETYP=RUN     
 MPLEVL=       0     CITYP =NONE         CCTYP =NONE         VBTYP =NONE    
 DFTTYP=NONE         TDDFT =NONE    
 MULT  =       1     ICHARG=       0     NZVAR =       0     COORD =UNIQUE  
 PP    =NONE         RELWFN=NONE         LOCAL =NONE         NUMGRD=       F
 ISPHER=      -1     NOSYM =       0     MAXIT =     200     UNITS =ANGS    
 PLTORB=       F     MOLPLT=       F     AIMPAC=       F     FRIEND=        
 NPRINT=       7     IREST =       0     GEOM  =INPUT   
 NORMF =       0     NORMP =       0     ITOL  =      20     ICUT  =       9
 INTTYP=BEST         GRDTYP=BEST         QMTTOL= 1.0E-06

     $SYSTEM OPTIONS
     ---------------
  REPLICATED MEMORY=   100000000 WORDS (ON EVERY NODE).
 DISTRIBUTED MEMDDI=           0 MILLION WORDS IN AGGREGATE,
 MEMDDI DISTRIBUTED OVER   8 PROCESSORS IS           0 WORDS/PROCESSOR.
 TOTAL MEMORY REQUESTED ON EACH PROCESSOR=   100000000 WORDS.
 TIMLIM=      525600.00 MINUTES, OR     365.0 DAYS.
 PARALL= T  BALTYP=  DLB     KDIAG=    0  COREFL= F
 MXSEQ2=     300 MXSEQ3=     150  mem10=         0

          ----------------
          PROPERTIES INPUT
          ----------------

     MOMENTS            FIELD           POTENTIAL          DENSITY
 IEMOM =       1   IEFLD =       0   IEPOT =       0   IEDEN =       0
 WHERE =COMASS     WHERE =NUCLEI     WHERE =NUCLEI     WHERE =NUCLEI  
 OUTPUT=BOTH       OUTPUT=BOTH       OUTPUT=BOTH       OUTPUT=BOTH    
 IEMINT=       0   IEFINT=       0                     IEDINT=       0
                                                       MORB  =       0
          EXTRAPOLATION IN EFFECT
          DAMPING IN EFFECT
          SOSCF IN EFFECT
 ORBITAL PRINTING OPTION: NPREO=     1    23     2     1

     -------------------------------
     INTEGRAL TRANSFORMATION OPTIONS
     -------------------------------
     NWORD  =            0
     CUTOFF = 1.0E-09     MPTRAN =       0
     DIRTRF =       T     AOINTS =DUP     

          ----------------------
          INTEGRAL INPUT OPTIONS
          ----------------------
 NOPK  =       1 NORDER=       0 SCHWRZ=       T

     ------------------------------------------
     THE POINT GROUP IS C1 , NAXIS= 0, ORDER= 1
     ------------------------------------------

     DIMENSIONS OF THE SYMMETRY SUBSPACES ARE
 A   =   23

 ..... DONE SETTING UP THE RUN .....
 CPU     0: STEP CPU TIME=     0.05 TOTAL CPU TIME=          0.1 (      0.0 MIN)
 TOTAL WALL CLOCK TIME=          0.1 SECONDS, CPU UTILIZATION IS    46.15%


          -----------------------------
          STATIONARY POINT LOCATION RUN
          -----------------------------

 OBTAINING INITIAL HESSIAN, HESS=GUESS   
 CARTESIAN COORDINATE OPTIMIZATION USING BADGER'S RULE FORCE CONSTANT GUESS

          PARAMETERS CONTROLLING GEOMETRY SEARCH ARE
          METHOD =QA                  UPHESS =BFGS    
          NNEG   =         0          NFRZ   =         0
          NSTEP  =       200          IFOLOW =         1
          HESS   =GUESS               RESTAR =         F
          IHREP  =         0          HSSEND =         T
          NPRT   =         0          NPUN   =         0
          OPTTOL = 1.000E-04          RMIN   = 1.500E-03
          RMAX   = 1.000E-01          RLIM   = 7.000E-02
          DXMAX  = 3.000E-01          PURIFY =         F
          MOVIE  =         F          TRUPD  =         T
          TRMAX  = 5.000E-01          TRMIN  = 5.000E-02
          ITBMAT =         5          STPT   =         F
          STSTEP = 1.000E-02          PROJCT=          T

 BEGINNING GEOMETRY SEARCH POINT NSERCH=   0 ...

 COORDINATES OF ALL ATOMS ARE (ANGS)
   ATOM   CHARGE       X              Y              Z
 ------------------------------------------------------------
 O           8.0   0.2218634400   0.0646238840   0.0000000000
 H           1.0  -1.0869454000   1.3371949000   0.0000000000
 H           1.0  -0.6879621100  -1.8541860000   0.0000000000

          ********************
          1 ELECTRON INTEGRALS
          ********************
 ...... END OF ONE-ELECTRON INTEGRALS ......
 CPU     0: STEP CPU TIME=     0.02 TOTAL CPU TIME=          0.1 (      0.0 MIN)
 TOTAL WALL CLOCK TIME=          0.1 SECONDS, CPU UTILIZATION IS    53.33%

          -------------
          GUESS OPTIONS
          -------------
          GUESS =HUCKEL            NORB  =       0          NORDER=       0
          MIX   =       F          PRTMO =       F          PUNMO =       F
          TOLZ  = 1.0E-08          TOLE  = 1.0E-05
          SYMDEN=       F          PURIFY=       F

 INITIAL GUESS ORBITALS GENERATED BY HUCKEL   ROUTINE.
 HUCKEL GUESS REQUIRES      6316 WORDS.

 SYMMETRIES FOR INITIAL GUESS ORBITALS FOLLOW.   BOTH SET(S).
     5 ORBITALS ARE OCCUPIED (    1 CORE ORBITALS).
     2=A        3=A        4=A        5=A        6=A        7=A        8=A   
     9=A       10=A       11=A       12=A       13=A       14=A       15=A   
 ...... END OF INITIAL ORBITAL SELECTION ......
 CPU     0: STEP CPU TIME=     0.02 TOTAL CPU TIME=          0.1 (      0.0 MIN)
 TOTAL WALL CLOCK TIME=          0.2 SECONDS, CPU UTILIZATION IS    62.50%

                    ----------------------
                    AO INTEGRAL TECHNOLOGY
                    ----------------------
     S,P,L SHELL ROTATED AXIS INTEGRALS, REPROGRAMMED BY
        KAZUYA ISHIMURA (IMS) AND JOSE SIERRA (SYNSTAR).
     S,P,D,L SHELL ROTATED AXIS INTEGRALS PROGRAMMED BY
        KAZUYA ISHIMURA (INSTITUTE FOR MOLECULAR SCIENCE).
     S,P,D,F,G SHELL TO TOTAL QUARTET ANGULAR MOMENTUM SUM 5,
        ERIC PROGRAM BY GRAHAM FLETCHER (ELORET AND NASA ADVANCED
        SUPERCOMPUTING DIVISION, AMES RESEARCH CENTER).
     S,P,D,F,G,L SHELL GENERAL RYS QUADRATURE PROGRAMMED BY
        MICHEL DUPUIS (PACIFIC NORTHWEST NATIONAL LABORATORY).

          --------------------
          2 ELECTRON INTEGRALS
          --------------------

 DIRECT SCF METHOD SKIPS INTEGRAL STORAGE ON DISK.
 DIRECT TRANSFORMATION SKIPS AO INTEGRAL STORAGE ON DISK.
  ...... END OF TWO-ELECTRON INTEGRALS .....
 CPU     0: STEP CPU TIME=     0.00 TOTAL CPU TIME=          0.1 (      0.0 MIN)
 TOTAL WALL CLOCK TIME=          0.2 SECONDS, CPU UTILIZATION IS    55.56%

          --------------------------
                 RHF SCF CALCULATION
          --------------------------

     NUCLEAR ENERGY =         4.4771148018
     MAXIT =  200     NPUNCH=    2
     EXTRAP=T  DAMP=T  SHIFT=F  RSTRCT=F  DIIS=F  DEM=F  SOSCF=T
     DENSITY MATRIX CONV=  2.00E-05
     SOSCF WILL OPTIMIZE      90 ORBITAL ROTATIONS, SOGTOL=   0.250
     MEMORY REQUIRED FOR RHF ITERS=     48851 WORDS.

 DIRECT SCF CALCULATION, SCHWRZ=T   FDIFF=T,  DIRTHR=  0.00E+00 NITDIR=10
 SCHWARZ INEQUALITY OVERHEAD:       276 INTEGRALS, T=        0.00

                                                                                                                   NONZERO     BLOCKS
 ITER EX DEM     TOTAL ENERGY        E CHANGE  DENSITY CHANGE     ORB. GRAD      VIR. SHIFT       DAMPING        INTEGRALS    SKIPPED
   1  0  0      -75.2348768558   -75.2348768558   0.547517264   0.000000000     0.000000000     1.000000000          18901         35
   2  1  0      -75.0411112086     0.1937656472   0.427394313   0.333038265     0.000000000     1.000000000          18912         40
          ---------------START SECOND ORDER SCF---------------
   3  2  0      -75.5094722124    -0.4683610038   0.319681298   0.100997212     0.000000000     0.000000000          18903         43
   4  3  0      -75.4215235582     0.0879486542   0.178344307   0.189913810     0.000000000     0.000000000          18864         47
   5  4  0      -75.5793407370    -0.1578171788   0.014967145   0.008434373     0.000000000     0.000000000          18761         61
   6  5  0      -75.5799902013    -0.0006494644   0.004910677   0.001956207     0.000000000     0.000000000          18658         81
   7  6  0      -75.5800551367    -0.0000649353   0.003299303   0.000859687     0.000000000     0.000000000          18418        106
   8  7  0      -75.5800729573    -0.0000178206   0.003260623   0.000504224     0.000000000     0.000000000          18276        125
   9  8  0      -75.5800854939    -0.0000125367   0.003107115   0.000472506     0.000000000     0.000000000          18345        121
  10  9  0      -75.5800932251    -0.0000077311   0.004566797   0.000360272     0.000000000     0.000000000          18073        140
  11 10  0      -75.5801010276    -0.0000078025   0.003053996   0.000380993     0.000000000     0.000000000          18108        137
  12 11  0      -75.5801047279    -0.0000037003   0.000951051   0.000224479     0.000000000     0.000000000          18044        139
  13 12  0      -75.5801056928    -0.0000009648   0.000202625   0.000072775     0.000000000     0.000000000          17886        162
  14 13  0      -75.5801058209    -0.0000001281   0.000101014   0.000028537     0.000000000     0.000000000          17636        202
  15 14  0      -75.5801058442    -0.0000000233   0.000043880   0.000012395     0.000000000     0.000000000          17263        253
  16 15  0      -75.5801058488    -0.0000000046   0.000015828   0.000005222     0.000000000     0.000000000          17005        294
  17 16  0      -75.5801058493    -0.0000000005   0.000005713   0.000001310     0.000000000     0.000000000          16810        315

          -----------------
          DENSITY CONVERGED
          -----------------
     TIME TO FORM FOCK OPERATORS=       0.0 SECONDS (       0.0 SEC/ITER)
     FOCK TIME ON FIRST ITERATION=       0.0, LAST ITERATION=       0.0
     TIME TO SOLVE SCF EQUATIONS=       0.1 SECONDS (       0.0 SEC/ITER)

 FINAL RHF ENERGY IS      -75.5801058493 AFTER  17 ITERATIONS

          ------------
          EIGENVECTORS
          ------------

                      1          2          3          4          5
                  -20.6796    -1.2037    -0.5112    -0.4485    -0.4083
                     A          A          A          A          A   
    1  O  1  S    0.996042  -0.230911   0.000000  -0.021208   0.016480
    2  O  1  S    0.020692   0.541702   0.000000   0.065353  -0.048106
    3  O  1  X   -0.000820   0.000302   0.000000   0.375464  -0.308049
    4  O  1  Y    0.000009   0.004163   0.000000  -0.277887  -0.339810
    5  O  1  Z    0.000000   0.000000   0.678779   0.000000   0.000000
    6  O  1  S   -0.007257   0.538756   0.000000   0.073607  -0.073322
    7  O  1  X    0.000544  -0.011778   0.000000   0.269663  -0.218932
    8  O  1  Y   -0.000005   0.004307   0.000000  -0.208047  -0.250446
    9  O  1  Z    0.000000   0.000000   0.426762   0.000000   0.000000
   10  O  1  S    0.003006  -0.003284   0.000000  -0.022205   0.063667
   11  O  1  X   -0.000506   0.003557   0.000000   0.060940  -0.079278
   12  O  1  Y   -0.000052  -0.001906   0.000000  -0.039028  -0.079647
   13  O  1  Z    0.000000   0.000000   0.075717   0.000000   0.000000
   14  H  2  S    0.000243   0.025053   0.000000  -0.219029  -0.000125
   15  H  2  S   -0.000436   0.023880   0.000000  -0.339083  -0.011383
   16  H  2  X    0.000212   0.001894   0.000000  -0.006338  -0.002834
   17  H  2  Y   -0.000193  -0.002007   0.000000   0.006848  -0.001890
   18  H  2  Z    0.000000   0.000000   0.003578   0.000000   0.000000
   19  H  3  S    0.000083   0.015311   0.000000   0.022702   0.213065
   20  H  3  S   -0.000380   0.018073   0.000000   0.042210   0.358568
   21  H  3  X    0.000042   0.000850   0.000000   0.002406   0.001885
   22  H  3  Y    0.000064   0.002247   0.000000   0.000372   0.005911
   23  H  3  Z    0.000000   0.000000   0.002152   0.000000   0.000000

                      6          7          8          9         10
                   -0.0572     0.0058     0.2599     0.2600     0.3085
                     A          A          A          A          A   
    1  O  1  S    0.030393   0.020726   0.047565   0.000000   0.007718
    2  O  1  S   -0.062052  -0.036532  -0.052885   0.000000   0.006120
    3  O  1  X    0.323652   0.213140  -0.172499   0.000000   0.031301
    4  O  1  Y    0.224721  -0.365497  -0.022681   0.000000  -0.164248
    5  O  1  Z    0.000000   0.000000   0.000000  -0.199435   0.000000
    6  O  1  S   -0.165425  -0.145991  -0.651172   0.000000  -0.192005
    7  O  1  X    0.262067   0.200254  -0.417043   0.000000   0.131883
    8  O  1  Y    0.179705  -0.341899  -0.055478   0.000000  -0.518566
    9  O  1  Z    0.000000   0.000000   0.000000  -0.495673   0.000000
   10  O  1  S    0.042508   0.042543   1.073949   0.000000   0.472174
   11  O  1  X    0.109263   0.067229   0.879858   0.000000  -0.556577
   12  O  1  Y    0.081439  -0.121062   0.138843   0.000000   1.592250
   13  O  1  Z    0.000000   0.000000   0.000000   1.229876   0.000000
   14  H  2  S    0.096963   0.238784  -0.034798   0.000000  -0.061024
   15  H  2  S    0.258793   0.724711  -0.090044   0.000000  -0.828750
   16  H  2  X   -0.000777  -0.012471   0.006823   0.000000   0.000607
   17  H  2  Y    0.005652   0.010410  -0.000247   0.000000   0.008228
   18  H  2  Z    0.000000   0.000000   0.000000   0.009061   0.000000
   19  H  3  S    0.245939  -0.099334  -0.034613   0.000000   0.016548
   20  H  3  S    0.639848  -0.283098  -0.050566   0.000000   0.411340
   21  H  3  X   -0.004498   0.005034   0.007663   0.000000  -0.007582
   22  H  3  Y   -0.011520   0.005478   0.003976   0.000000   0.008826
   23  H  3  Z    0.000000   0.000000   0.000000   0.009510   0.000000

                     11         12         13         14         15
                    0.3270     0.9987     1.0193     1.4048     1.4066
                     A          A          A          A          A   
    1  O  1  S    0.049425  -0.010930  -0.000540  -0.000999   0.000000
    2  O  1  S   -0.019815   0.188618   0.004096   0.049252   0.000000
    3  O  1  X    0.111778  -0.238165   0.001525  -0.449950   0.000000
    4  O  1  Y    0.087761   0.182634  -0.156225  -0.862078   0.000000
    5  O  1  Z    0.000000   0.000000   0.000000   0.000000  -0.965485
    6  O  1  S   -0.892874  -0.173117   0.079856  -0.123520   0.000000
    7  O  1  X    0.330679   0.322723   0.004849   0.651010   0.000000
    8  O  1  Y    0.220704  -0.245139   0.239644   1.199062   0.000000
    9  O  1  Z    0.000000   0.000000   0.000000   0.000000   1.449642
   10  O  1  S    1.743027  -0.476576  -0.290104   0.143118   0.000000
   11  O  1  X   -1.136144   0.200074   0.085676  -0.330871   0.000000
   12  O  1  Y   -0.469996  -0.095504   0.225844  -0.682982   0.000000
   13  O  1  Z    0.000000   0.000000   0.000000   0.000000  -0.656597
   14  H  2  S   -0.068306  -1.194941   0.289776  -0.140402   0.000000
   15  H  2  S   -0.708674   1.476418  -0.298651   0.134380   0.000000
   16  H  2  X   -0.006462  -0.050961   0.021071   0.049863   0.000000
   17  H  2  Y   -0.008709   0.056360   0.002143  -0.023941   0.000000
   18  H  2  Z    0.000000   0.000000   0.000000   0.000000   0.035938
   19  H  3  S   -0.067889  -0.320480  -1.276387   0.196780   0.000000
   20  H  3  S   -0.771081   0.379049   1.370228  -0.325131   0.000000
   21  H  3  X   -0.005382   0.005849  -0.022348  -0.068292   0.000000
   22  H  3  Y    0.007665  -0.021072  -0.042181  -0.148380   0.000000
   23  H  3  Z    0.000000   0.000000   0.000000   0.000000  -0.001959

                     16         17         18         19         20
                    1.4329     1.6606     2.2076     2.2201     2.2278
                     A          A          A          A          A   
    1  O  1  S   -0.005822   0.077001   0.000000   0.000159  -0.004711
    2  O  1  S    0.094188  -1.639269   0.000000   0.010720   0.118374
    3  O  1  X   -0.832688  -0.124504   0.000000  -0.020920  -0.015578
    4  O  1  Y    0.390435   0.045862   0.000000   0.026996  -0.042342
    5  O  1  Z    0.000000   0.000000  -0.026792   0.000000   0.000000
    6  O  1  S   -0.170419   2.368028   0.000000  -0.036810  -0.178274
    7  O  1  X    1.155025   0.206018   0.000000   0.054622   0.062696
    8  O  1  Y   -0.511331  -0.098348   0.000000  -0.073820   0.088134
    9  O  1  Z    0.000000   0.000000   0.059668   0.000000   0.000000
   10  O  1  S    0.318984  -1.258679   0.000000   0.079177   0.111815
   11  O  1  X   -0.674141   0.068549   0.000000  -0.105638  -0.141160
   12  O  1  Y    0.344411   0.046738   0.000000   0.146467  -0.070991
   13  O  1  Z    0.000000   0.000000  -0.049249   0.000000   0.000000
   14  H  2  S    0.518058  -0.172885   0.000000   0.046669   0.016957
   15  H  2  S   -0.639178   0.346454   0.000000  -0.141850  -0.063752
   16  H  2  X   -0.117211   0.133489   0.000000  -0.283656   0.593793
   17  H  2  Y    0.125826  -0.093082   0.000000  -0.330542   0.598891
   18  H  2  Z    0.000000   0.000000  -0.464379   0.000000   0.000000
   19  H  3  S    0.010732  -0.062475   0.000000  -0.005895   0.011552
   20  H  3  S   -0.050773   0.226553   0.000000   0.024785  -0.063078
   21  H  3  X   -0.013010   0.055394   0.000000   0.767785   0.531046
   22  H  3  Y    0.012337   0.070129   0.000000  -0.474234   0.084104
   23  H  3  Z    0.000000   0.000000   0.885745   0.000000   0.000000

                     21         22         23
                    2.2345     2.3382     2.4866
                     A          A          A   
    1  O  1  S    0.000000  -0.007799   0.014868
    2  O  1  S    0.000000   0.107973  -0.418844
    3  O  1  X    0.000000  -0.073286   0.207442
    4  O  1  Y    0.000000  -0.205914  -0.194042
    5  O  1  Z    0.034116   0.000000   0.000000
    6  O  1  S    0.000000  -0.049127   0.550328
    7  O  1  X    0.000000   0.103467  -0.410044
    8  O  1  Y    0.000000   0.328862   0.390815
    9  O  1  Z   -0.015816   0.000000   0.000000
   10  O  1  S    0.000000  -0.186497  -0.045414
   11  O  1  X    0.000000   0.080550   0.077026
   12  O  1  Y    0.000000  -0.002487  -0.112255
   13  O  1  Z   -0.104131   0.000000   0.000000
   14  H  2  S    0.000000  -0.035918   0.031271
   15  H  2  S    0.000000   0.087021  -0.205496
   16  H  2  X    0.000000  -0.271471  -0.706673
   17  H  2  Y    0.000000  -0.193168   0.715238
   18  H  2  Z    0.888116   0.000000   0.000000
   19  H  3  S    0.000000  -0.093744   0.025723
   20  H  3  S    0.000000   0.241362  -0.055020
   21  H  3  X    0.000000   0.359577   0.012933
   22  H  3  Y    0.000000   0.873042  -0.067461
   23  H  3  Z    0.467917   0.000000   0.000000
 ...... END OF RHF CALCULATION ......
 CPU     0: STEP CPU TIME=     0.10 TOTAL CPU TIME=          0.2 (      0.0 MIN)
 TOTAL WALL CLOCK TIME=          0.3 SECONDS, CPU UTILIZATION IS    71.43%

     ----------------------------------------------------------------
     PROPERTY VALUES FOR THE RHF   SELF-CONSISTENT FIELD WAVEFUNCTION
     ----------------------------------------------------------------

          -----------------
          ENERGY COMPONENTS
          -----------------

         WAVEFUNCTION NORMALIZATION =       1.0000000000

                ONE ELECTRON ENERGY =    -113.6118814108
                TWO ELECTRON ENERGY =      33.5546607598
           NUCLEAR REPULSION ENERGY =       4.4771148018
                                      ------------------
                       TOTAL ENERGY =     -75.5801058493

 ELECTRON-ELECTRON POTENTIAL ENERGY =      33.5546607598
  NUCLEUS-ELECTRON POTENTIAL ENERGY =    -188.3347867013
   NUCLEUS-NUCLEUS POTENTIAL ENERGY =       4.4771148018
                                      ------------------
             TOTAL POTENTIAL ENERGY =    -150.3030111398
               TOTAL KINETIC ENERGY =      74.7229052905
                 VIRIAL RATIO (V/T) =       2.0114717242

  ...... PI ENERGY ANALYSIS ......

 ENERGY ANALYSIS:
            FOCK ENERGY=    -46.5025535609
          BARE H ENERGY=   -113.6118814108
     ELECTRONIC ENERGY =    -80.0572174859
         KINETIC ENERGY=     74.7229052905
          N-N REPULSION=      4.4771148018
           TOTAL ENERGY=    -75.5801026841
        SIGMA PART(1+2)=    -72.8011092530
               (K,V1,2)=     69.8810168816   -170.0029932168     27.3208670823
           PI PART(1+2)=     -7.2561082329
               (K,V1,2)=      4.8418884089    -18.3317934845      6.2337968427
  SIGMA SKELETON, ERROR=    -68.3239944512     -0.0000000000
             MIXED PART= 0.00000E+00 0.00000E+00 0.00000E+00 0.00000E+00
 ...... END OF PI ENERGY ANALYSIS ......

          ---------------------------------------
          MULLIKEN AND LOWDIN POPULATION ANALYSES
          ---------------------------------------

     ATOMIC MULLIKEN POPULATION IN EACH MOLECULAR ORBITAL

                      1          2          3          4          5

                  2.000000   2.000000   2.000000   2.000000   2.000000

    1             2.000024   1.975705   1.999738   1.293604   1.286605
    2            -0.000016   0.016883   0.000203   0.696937   0.000080
    3            -0.000008   0.007412   0.000059   0.009459   0.713315

               ----- POPULATIONS IN EACH AO -----
                             MULLIKEN      LOWDIN
              1  O  1  S      1.99828     1.99626
              2  O  1  S      1.00158     0.98157
              3  O  1  X      0.67807     0.64176
              4  O  1  Y      0.56781     0.53289
              5  O  1  Z      1.22932     1.18378
              6  O  1  S      0.99064     0.83006
              7  O  1  X      0.54385     0.53017
              8  O  1  Y      0.50936     0.49086
              9  O  1  Z      0.69829     0.68975
             10  O  1  S      0.02053     0.21142
             11  O  1  X      0.12215     0.21680
             12  O  1  Y      0.12367     0.26723
             13  O  1  Z      0.07212     0.12614
             14  H  2  S      0.24108     0.24223
             15  H  2  S      0.47091     0.39014
             16  H  2  X      0.00093     0.00150
             17  H  2  Y      0.00097     0.00156
             18  H  2  Z      0.00020     0.00027
             19  H  3  S      0.22605     0.23456
             20  H  3  S      0.50332     0.43004
             21  H  3  X      0.00016     0.00015
             22  H  3  Y      0.00065     0.00080
             23  H  3  Z      0.00006     0.00006

          ----- MULLIKEN ATOMIC OVERLAP POPULATIONS -----
          (OFF-DIAGONAL ELEMENTS NEED TO BE MULTIPLIED BY 2)

             1           2           3

    1    8.1914281
    2    0.1901727   0.5259355
    3    0.1740749  -0.0020209   0.5581832

          TOTAL MULLIKEN AND LOWDIN ATOMIC POPULATIONS
       ATOM         MULL.POP.    CHARGE          LOW.POP.     CHARGE
    1 O             8.555676   -0.555676         8.698697   -0.698697
    2 H             0.714087    0.285913         0.635700    0.364300
    3 H             0.730237    0.269763         0.665603    0.334397

          -------------------------------
          BOND ORDER AND VALENCE ANALYSIS     BOND ORDER THRESHOLD=0.050
          -------------------------------

                   BOND                       BOND                       BOND
  ATOM PAIR DIST  ORDER      ATOM PAIR DIST  ORDER      ATOM PAIR DIST  ORDER
    1   2  1.825  0.911        1   3  2.124  0.921

                       TOTAL       BONDED        FREE
      ATOM            VALENCE     VALENCE     VALENCE
    1 O                 1.832       1.832       0.000
    2 H                 0.917       0.917       0.000
    3 H                 0.927       0.927      -0.000

          ---------------------
          ELECTROSTATIC MOMENTS
          ---------------------

 POINT   1           X           Y           Z (BOHR)    CHARGE
                 0.184653    0.053785    0.000000        0.00 (A.U.)
         DX          DY          DZ         /D/  (DEBYE)
    -2.558730   -0.467823    0.000000    2.601146
 ...... END OF PROPERTY EVALUATION ......
 CPU     0: STEP CPU TIME=     0.02 TOTAL CPU TIME=          0.2 (      0.0 MIN)
 TOTAL WALL CLOCK TIME=          0.3 SECONDS, CPU UTILIZATION IS    70.97%

 BEGINNING ONE ELECTRON GRADIENT...
 ..... END OF 1-ELECTRON GRADIENT ......
 CPU     0: STEP CPU TIME=     0.00 TOTAL CPU TIME=          0.2 (      0.0 MIN)
 TOTAL WALL CLOCK TIME=          0.3 SECONDS, CPU UTILIZATION IS    70.97%

          ----------------------
          GRADIENT OF THE ENERGY
          ----------------------
 THE COARSE/FINE SCHWARZ SCREENINGS SKIPPED           41/         101 BLOCKS.
 THE NUMBER OF GRADIENT INTEGRAL BLOCKS COMPUTED WAS      1301
 ...... END OF 2-ELECTRON GRADIENT ......
 CPU     0: STEP CPU TIME=     0.00 TOTAL CPU TIME=          0.2 (      0.0 MIN)
 TOTAL WALL CLOCK TIME=          0.3 SECONDS, CPU UTILIZATION IS    70.97%

          NSERCH=  0     ENERGY=     -75.5801058

                                 -----------------------
                                 GRADIENT (HARTREE/BOHR)
                                 -----------------------
        ATOM     ZNUC       DE/DX         DE/DY         DE/DZ
 --------------------------------------------------------------
    1  O            8.0     0.1014776    -0.0010463     0.0000000
    2  H            1.0    -0.0707533     0.0755233     0.0000000
    3  H            1.0    -0.0307243    -0.0744770     0.0000000

          MAXIMUM GRADIENT = 0.1014776    RMS GRADIENT = 0.0552765

 NSERCH:   0  E=      -75.5801058493  GRAD. MAX=  0.1014776  R.M.S.=  0.0552765

          FORCE CONSTANT MATRIX NOT UPDATED --- TAKING FIRST STEP
          MIN SEARCH, CORRECT HESSIAN, TRYING PURE NR STEP
               NR STEP HAS LENGTH         =   2.496515
          TRIM/QA LAMBDA FOR NON-TS MODES =  -0.45683690
          TRIM/QA STEP HAS LENGTH         =   0.300000
          RADIUS OF STEP TAKEN=   0.30000  CURRENT TRUST RADIUS=   0.30000

 BEGINNING GEOMETRY SEARCH POINT NSERCH=   1 ...

 COORDINATES OF ALL ATOMS ARE (ANGS)
   ATOM   CHARGE       X              Y              Z
 ------------------------------------------------------------
 O           8.0   0.1257073265   0.0589491938   0.0000000000
 H           1.0  -1.0219543068   1.2668435558  -0.0000000000
 H           1.0  -0.6567970897  -1.7781599656   0.0000000000

          INTERNUCLEAR DISTANCES (ANGS.)
          ------------------------------

                1 O          2 H          3 H     

   1 O       0.0000000    1.6661741 *  1.9968183 *
   2 H       1.6661741 *  0.0000000    3.0668202  
   3 H       1.9968183 *  3.0668202    0.0000000  

  * ... LESS THAN  3.000

 ...... END OF ONE-ELECTRON INTEGRALS ......
 CPU     0: STEP CPU TIME=     0.02 TOTAL CPU TIME=          0.2 (      0.0 MIN)
 TOTAL WALL CLOCK TIME=          0.3 SECONDS, CPU UTILIZATION IS    75.00%
  ...... END OF TWO-ELECTRON INTEGRALS .....
 CPU     0: STEP CPU TIME=     0.00 TOTAL CPU TIME=          0.2 (      0.0 MIN)
 TOTAL WALL CLOCK TIME=          0.3 SECONDS, CPU UTILIZATION IS    72.73%

          --------------------------
                 RHF SCF CALCULATION
          --------------------------
     DENSITY MATRIX CONV=  4.00E-04

 DIRECT SCF CALCULATION, SCHWRZ=T   FDIFF=T,  DIRTHR=  0.00E+00 NITDIR=10

                                                                                                                   NONZERO     BLOCKS
 ITER EX DEM     TOTAL ENERGY        E CHANGE  DENSITY CHANGE     ORB. GRAD      VIR. SHIFT       DAMPING        INTEGRALS    SKIPPED
          ---------------START SECOND ORDER SCF---------------
   1  0  0      -75.6303188592   -75.6303188592   0.028071795   0.011188156     0.000000000     0.000000000          19379         26
   2  1  0      -75.6307361599    -0.0004173008   0.014964836   0.016654078     0.000000000     0.000000000          19233         43
   3  2  0      -75.6317816087    -0.0010454487   0.002749625   0.002166480     0.000000000     0.000000000          19148         48
   4  3  0      -75.6318149505    -0.0000333419   0.003250652   0.000501724     0.000000000     0.000000000          19023         66
   5  4  0      -75.6318253055    -0.0000103550   0.002146293   0.000307464     0.000000000     0.000000000          18862         74
   6  5  0      -75.6318287850    -0.0000034795   0.001976836   0.000229313     0.000000000     0.000000000          18726         86
   7  6  0      -75.6318310725    -0.0000022875   0.000972383   0.000171415     0.000000000     0.000000000          18688         90
   8  7  0      -75.6318317919    -0.0000007195   0.000283256   0.000074253     0.000000000     0.000000000          18481        111
   9  8  0      -75.6318319330    -0.0000001411   0.000089948   0.000025070     0.000000000     0.000000000          18160        151

          -----------------
          DENSITY CONVERGED
          -----------------
     TIME TO FORM FOCK OPERATORS=       0.0 SECONDS (       0.0 SEC/ITER)
     FOCK TIME ON FIRST ITERATION=       0.0, LAST ITERATION=       0.0
     TIME TO SOLVE SCF EQUATIONS=       0.0 SECONDS (       0.0 SEC/ITER)

 FINAL RHF ENERGY IS      -75.6318319330 AFTER   9 ITERATIONS
 ...... END OF RHF CALCULATION ......
 CPU     0: STEP CPU TIME=     0.05 TOTAL CPU TIME=          0.3 (      0.0 MIN)
 TOTAL WALL CLOCK TIME=          0.4 SECONDS, CPU UTILIZATION IS    78.38%
 ..... END OF 1-ELECTRON GRADIENT ......
 CPU     0: STEP CPU TIME=     0.00 TOTAL CPU TIME=          0.3 (      0.0 MIN)
 TOTAL WALL CLOCK TIME=          0.4 SECONDS, CPU UTILIZATION IS    76.32%
 ...... END OF 2-ELECTRON GRADIENT ......
 CPU     0: STEP CPU TIME=     0.00 TOTAL CPU TIME=          0.3 (      0.0 MIN)
 TOTAL WALL CLOCK TIME=          0.4 SECONDS, CPU UTILIZATION IS    76.32%

          NSERCH=  1     ENERGY=     -75.6318319

                                 -----------------------
                                 GRADIENT (HARTREE/BOHR)
                                 -----------------------
        ATOM     ZNUC       DE/DX         DE/DY         DE/DZ
 --------------------------------------------------------------
    1  O            8.0     0.1034005    -0.0052643     0.0000000
    2  H            1.0    -0.0745096     0.0897819     0.0000000
    3  H            1.0    -0.0288909    -0.0845176     0.0000000

          MAXIMUM GRADIENT = 0.1034005    RMS GRADIENT = 0.0599164

 NSERCH:   1  E=      -75.6318319330  GRAD. MAX=  0.1034005  R.M.S.=  0.0599164

          HESSIAN UPDATED USING THE BFGS FORMULA
          WARNING! HEREDITARY POSITIVE DEFINITENESS ENDANGERED
 LOCAL CURVATURE   1 OF THE APPROXIMATE HESSIAN HAS EIGENVALUE=   -0.082306
 *** THIS MODE HAS AN INCORRECT CURVATURE ***
 THE COMPONENTS OF THIS MODE FOLLOWS:
        0.106828      -0.131294       0.000000      -0.187446       0.744284
       -0.000000       0.080618      -0.612990       0.000000
             ACTUAL ENERGY CHANGE WAS  -0.0517260837
          PREDICTED ENERGY CHANGE WAS  -0.0453914610 RATIO=  1.140
          TRIM/QA LAMBDA FOR NON-TS MODES =  -0.47987340
          TRIM/QA STEP HAS LENGTH         =   0.424264
          RADIUS OF STEP TAKEN=   0.42426  CURRENT TRUST RADIUS=   0.42426

 BEGINNING GEOMETRY SEARCH POINT NSERCH=   2 ...

 COORDINATES OF ALL ATOMS ARE (ANGS)
   ATOM   CHARGE       X              Y              Z
 ------------------------------------------------------------
 O           8.0   0.0085066258   0.0691288308   0.0000000000
 H           1.0  -0.9338534535   1.1436327447  -0.0000000000
 H           1.0  -0.6276972424  -1.6651287915   0.0000000000

          INTERNUCLEAR DISTANCES (ANGS.)
          ------------------------------

                1 O          2 H          3 H     

   1 O       0.0000000    1.4291960 *  1.8472696 *
   2 H       1.4291960 *  0.0000000    2.8253978 *
   3 H       1.8472696 *  2.8253978 *  0.0000000  

  * ... LESS THAN  3.000

 ...... END OF ONE-ELECTRON INTEGRALS ......
 CPU     0: STEP CPU TIME=     0.00 TOTAL CPU TIME=          0.3 (      0.0 MIN)
 TOTAL WALL CLOCK TIME=          0.4 SECONDS, CPU UTILIZATION IS    74.36%
  ...... END OF TWO-ELECTRON INTEGRALS .....
 CPU     0: STEP CPU TIME=     0.01 TOTAL CPU TIME=          0.3 (      0.0 MIN)
 TOTAL WALL CLOCK TIME=          0.4 SECONDS, CPU UTILIZATION IS    76.92%

          --------------------------
                 RHF SCF CALCULATION
          --------------------------
     DENSITY MATRIX CONV=  4.00E-04

 DIRECT SCF CALCULATION, SCHWRZ=T   FDIFF=T,  DIRTHR=  0.00E+00 NITDIR=10

                                                                                                                   NONZERO     BLOCKS
 ITER EX DEM     TOTAL ENERGY        E CHANGE  DENSITY CHANGE     ORB. GRAD      VIR. SHIFT       DAMPING        INTEGRALS    SKIPPED
          ---------------START SECOND ORDER SCF---------------
   1  0  0      -75.7067852364   -75.7067852364   0.043727352   0.028643657     0.000000000     0.000000000          19675         10
   2  1  0      -75.7100415984    -0.0032563620   0.027707800   0.024572244     0.000000000     0.000000000          19672         15
   3  2  0      -75.7120501428    -0.0020085445   0.008393886   0.007570112     0.000000000     0.000000000          19658         18
   4  3  0      -75.7122698070    -0.0002196642   0.003219147   0.000985436     0.000000000     0.000000000          19655         20
   5  4  0      -75.7122865319    -0.0000167249   0.002247886   0.000367018     0.000000000     0.000000000          19432         39
   6  5  0      -75.7122906502    -0.0000041182   0.000691861   0.000157981     0.000000000     0.000000000          19346         42
   7  6  0      -75.7122912904    -0.0000006402   0.000584869   0.000101782     0.000000000     0.000000000          19128         53
   8  7  0      -75.7122915857    -0.0000002953   0.000091211   0.000031701     0.000000000     0.000000000          19048         57
   9  8  0      -75.7122916072    -0.0000000215   0.000033508   0.000011029     0.000000000     0.000000000          18845         91

          -----------------
          DENSITY CONVERGED
          -----------------
     TIME TO FORM FOCK OPERATORS=       0.0 SECONDS (       0.0 SEC/ITER)
     FOCK TIME ON FIRST ITERATION=       0.0, LAST ITERATION=       0.0
     TIME TO SOLVE SCF EQUATIONS=       0.0 SECONDS (       0.0 SEC/ITER)

 FINAL RHF ENERGY IS      -75.7122916072 AFTER   9 ITERATIONS
 ...... END OF RHF CALCULATION ......
 CPU     0: STEP CPU TIME=     0.05 TOTAL CPU TIME=          0.3 (      0.0 MIN)
 TOTAL WALL CLOCK TIME=          0.4 SECONDS, CPU UTILIZATION IS    77.78%
 ..... END OF 1-ELECTRON GRADIENT ......
 CPU     0: STEP CPU TIME=     0.00 TOTAL CPU TIME=          0.3 (      0.0 MIN)
 TOTAL WALL CLOCK TIME=          0.4 SECONDS, CPU UTILIZATION IS    77.78%
 ...... END OF 2-ELECTRON GRADIENT ......
 CPU     0: STEP CPU TIME=     0.01 TOTAL CPU TIME=          0.4 (      0.0 MIN)
 TOTAL WALL CLOCK TIME=          0.5 SECONDS, CPU UTILIZATION IS    78.26%

          NSERCH=  2     ENERGY=     -75.7122916

                                 -----------------------
                                 GRADIENT (HARTREE/BOHR)
                                 -----------------------
        ATOM     ZNUC       DE/DX         DE/DY         DE/DZ
 --------------------------------------------------------------
    1  O            8.0     0.1035910    -0.0124365     0.0000000
    2  H            1.0    -0.0788218     0.1104617     0.0000000
    3  H            1.0    -0.0247691    -0.0980252     0.0000000

          MAXIMUM GRADIENT = 0.1104617    RMS GRADIENT = 0.0662679

 NSERCH:   2  E=      -75.7122916072  GRAD. MAX=  0.1104617  R.M.S.=  0.0662679

          HESSIAN UPDATED USING THE BFGS FORMULA
          WARNING! HEREDITARY POSITIVE DEFINITENESS ENDANGERED
 LOCAL CURVATURE   1 OF THE APPROXIMATE HESSIAN HAS EIGENVALUE=   -0.081069
 *** THIS MODE HAS AN INCORRECT CURVATURE ***
 THE COMPONENTS OF THIS MODE FOLLOWS:
       -0.011531       0.205844       0.000000       0.138132      -0.774190
        0.000000      -0.126601       0.568346       0.000000
             ACTUAL ENERGY CHANGE WAS  -0.0804596742
          PREDICTED ENERGY CHANGE WAS  -0.0811650185 RATIO=  0.991
          TRIM/QA LAMBDA FOR NON-TS MODES =  -0.45067198
          TRIM/QA STEP HAS LENGTH         =   0.500000
          RADIUS OF STEP TAKEN=   0.50000  CURRENT TRUST RADIUS=   0.50000

 BEGINNING GEOMETRY SEARCH POINT NSERCH=   3 ...

 COORDINATES OF ALL ATOMS ARE (ANGS)
   ATOM   CHARGE       X              Y              Z
 ------------------------------------------------------------
 O           8.0  -0.1133851961   0.0930138328   0.0000000000
 H           1.0  -0.8356951192   0.9832054852  -0.0000000000
 H           1.0  -0.6039637547  -1.5285865340   0.0000000000

          INTERNUCLEAR DISTANCES (ANGS.)
          ------------------------------

                1 O          2 H          3 H     

   1 O       0.0000000    1.1463738 *  1.6941827 *
   2 H       1.1463738 *  0.0000000    2.5224588 *
   3 H       1.6941827 *  2.5224588 *  0.0000000  

  * ... LESS THAN  3.000

 ...... END OF ONE-ELECTRON INTEGRALS ......
 CPU     0: STEP CPU TIME=     0.00 TOTAL CPU TIME=          0.4 (      0.0 MIN)
 TOTAL WALL CLOCK TIME=          0.5 SECONDS, CPU UTILIZATION IS    78.26%
  ...... END OF TWO-ELECTRON INTEGRALS .....
 CPU     0: STEP CPU TIME=     0.01 TOTAL CPU TIME=          0.4 (      0.0 MIN)
 TOTAL WALL CLOCK TIME=          0.5 SECONDS, CPU UTILIZATION IS    78.72%

          --------------------------
                 RHF SCF CALCULATION
          --------------------------
     DENSITY MATRIX CONV=  4.00E-04

 DIRECT SCF CALCULATION, SCHWRZ=T   FDIFF=T,  DIRTHR=  0.00E+00 NITDIR=10

                                                                                                                   NONZERO     BLOCKS
 ITER EX DEM     TOTAL ENERGY        E CHANGE  DENSITY CHANGE     ORB. GRAD      VIR. SHIFT       DAMPING        INTEGRALS    SKIPPED
          ---------------START SECOND ORDER SCF---------------
   1  0  0      -75.7956116516   -75.7956116516   0.069336096   0.056132250     0.000000000     0.000000000          19771          2
   2  1  0      -75.8082550688    -0.0126434172   0.042409554   0.030090410     0.000000000     0.000000000          19778          2
   3  2  0      -75.8107879824    -0.0025329137   0.018808995   0.015735970     0.000000000     0.000000000          19771          2
   4  3  0      -75.8116713980    -0.0008834156   0.003445228   0.001253844     0.000000000     0.000000000          19768          3
   5  4  0      -75.8116985335    -0.0000271355   0.002215821   0.000558122     0.000000000     0.000000000          19718         11
   6  5  0      -75.8117035645    -0.0000050310   0.000462384   0.000155090     0.000000000     0.000000000          19712         13
   7  6  0      -75.8117039913    -0.0000004268   0.000253393   0.000069934     0.000000000     0.000000000          19678         22
   8  7  0      -75.8117041210    -0.0000001298   0.000037441   0.000019779     0.000000000     0.000000000          19669         22

          -----------------
          DENSITY CONVERGED
          -----------------
     TIME TO FORM FOCK OPERATORS=       0.0 SECONDS (       0.0 SEC/ITER)
     FOCK TIME ON FIRST ITERATION=       0.0, LAST ITERATION=       0.0
     TIME TO SOLVE SCF EQUATIONS=       0.0 SECONDS (       0.0 SEC/ITER)

 FINAL RHF ENERGY IS      -75.8117041210 AFTER   8 ITERATIONS
 ...... END OF RHF CALCULATION ......
 CPU     0: STEP CPU TIME=     0.04 TOTAL CPU TIME=          0.4 (      0.0 MIN)
 TOTAL WALL CLOCK TIME=          0.5 SECONDS, CPU UTILIZATION IS    80.39%
 ..... END OF 1-ELECTRON GRADIENT ......
 CPU     0: STEP CPU TIME=     0.00 TOTAL CPU TIME=          0.4 (      0.0 MIN)
 TOTAL WALL CLOCK TIME=          0.5 SECONDS, CPU UTILIZATION IS    80.39%
 ...... END OF 2-ELECTRON GRADIENT ......
 CPU     0: STEP CPU TIME=     0.00 TOTAL CPU TIME=          0.4 (      0.0 MIN)
 TOTAL WALL CLOCK TIME=          0.5 SECONDS, CPU UTILIZATION IS    78.85%

          NSERCH=  3     ENERGY=     -75.8117041

                                 -----------------------
                                 GRADIENT (HARTREE/BOHR)
                                 -----------------------
        ATOM     ZNUC       DE/DX         DE/DY         DE/DZ
 --------------------------------------------------------------
    1  O            8.0     0.0774682     0.0048509     0.0000000
    2  H            1.0    -0.0591898     0.1097016     0.0000000
    3  H            1.0    -0.0182783    -0.1145525     0.0000000

          MAXIMUM GRADIENT = 0.1145525    RMS GRADIENT = 0.0623780

 NSERCH:   3  E=      -75.8117041210  GRAD. MAX=  0.1145525  R.M.S.=  0.0623780

          HESSIAN UPDATED USING THE BFGS FORMULA
             ACTUAL ENERGY CHANGE WAS  -0.0994125138
          PREDICTED ENERGY CHANGE WAS  -0.1058017847 RATIO=  0.940
          MIN SEARCH, CORRECT HESSIAN, TRYING PURE NR STEP
               NR STEP HAS LENGTH         = 485.929564
          TRIM/QA LAMBDA FOR NON-TS MODES =  -0.36592244
          TRIM/QA STEP HAS LENGTH         =   0.500000
          RADIUS OF STEP TAKEN=   0.50000  CURRENT TRUST RADIUS=   0.50000

 BEGINNING GEOMETRY SEARCH POINT NSERCH=   4 ...

 COORDINATES OF ALL ATOMS ARE (ANGS)
   ATOM   CHARGE       X              Y              Z
 ------------------------------------------------------------
 O           8.0  -0.2114293358   0.0858781981   0.0000000000
 H           1.0  -0.7589650221   0.8224925751   0.0000000000
 H           1.0  -0.5826497121  -1.3607379892   0.0000000000

          INTERNUCLEAR DISTANCES (ANGS.)
          ------------------------------

                1 O          2 H          3 H     

   1 O       0.0000000    0.9178214 *  1.4934868 *
   2 H       0.9178214 *  0.0000000    2.1903385 *
   3 H       1.4934868 *  2.1903385 *  0.0000000  

  * ... LESS THAN  3.000

 ...... END OF ONE-ELECTRON INTEGRALS ......
 CPU     0: STEP CPU TIME=     0.01 TOTAL CPU TIME=          0.4 (      0.0 MIN)
 TOTAL WALL CLOCK TIME=          0.5 SECONDS, CPU UTILIZATION IS    80.77%
  ...... END OF TWO-ELECTRON INTEGRALS .....
 CPU     0: STEP CPU TIME=     0.00 TOTAL CPU TIME=          0.4 (      0.0 MIN)
 TOTAL WALL CLOCK TIME=          0.5 SECONDS, CPU UTILIZATION IS    79.25%

          --------------------------
                 RHF SCF CALCULATION
          --------------------------
     DENSITY MATRIX CONV=  4.00E-04

 DIRECT SCF CALCULATION, SCHWRZ=T   FDIFF=T,  DIRTHR=  0.00E+00 NITDIR=10

                                                                                                                   NONZERO     BLOCKS
 ITER EX DEM     TOTAL ENERGY        E CHANGE  DENSITY CHANGE     ORB. GRAD      VIR. SHIFT       DAMPING        INTEGRALS    SKIPPED
          ---------------START SECOND ORDER SCF---------------
   1  0  0      -75.8620211270   -75.8620211270   0.067022212   0.056331398     0.000000000     0.000000000          19819          0
   2  1  0      -75.8795239739    -0.0175028469   0.041763318   0.028087588     0.000000000     0.000000000          19819          0
   3  2  0      -75.8817585313    -0.0022345574   0.018509870   0.013721194     0.000000000     0.000000000          19819          0
   4  3  0      -75.8825490097    -0.0007904784   0.003978201   0.001631450     0.000000000     0.000000000          19819          0
   5  4  0      -75.8825850061    -0.0000359964   0.002448791   0.000614319     0.000000000     0.000000000          19819          0
   6  5  0      -75.8825934047    -0.0000083986   0.000391014   0.000199015     0.000000000     0.000000000          19794          1
   7  6  0      -75.8825938644    -0.0000004598   0.000266246   0.000073879     0.000000000     0.000000000          19776          3
   8  7  0      -75.8825939378    -0.0000000734   0.000028621   0.000013991     0.000000000     0.000000000          19743          6

          -----------------
          DENSITY CONVERGED
          -----------------
     TIME TO FORM FOCK OPERATORS=       0.0 SECONDS (       0.0 SEC/ITER)
     FOCK TIME ON FIRST ITERATION=       0.0, LAST ITERATION=       0.0
     TIME TO SOLVE SCF EQUATIONS=       0.0 SECONDS (       0.0 SEC/ITER)

 FINAL RHF ENERGY IS      -75.8825939378 AFTER   8 ITERATIONS
 ...... END OF RHF CALCULATION ......
 CPU     0: STEP CPU TIME=     0.03 TOTAL CPU TIME=          0.5 (      0.0 MIN)
 TOTAL WALL CLOCK TIME=          0.6 SECONDS, CPU UTILIZATION IS    78.95%
 ..... END OF 1-ELECTRON GRADIENT ......
 CPU     0: STEP CPU TIME=     0.01 TOTAL CPU TIME=          0.5 (      0.0 MIN)
 TOTAL WALL CLOCK TIME=          0.6 SECONDS, CPU UTILIZATION IS    80.70%
 ...... END OF 2-ELECTRON GRADIENT ......
 CPU     0: STEP CPU TIME=     0.01 TOTAL CPU TIME=          0.5 (      0.0 MIN)
 TOTAL WALL CLOCK TIME=          0.6 SECONDS, CPU UTILIZATION IS    81.03%

          NSERCH=  4     ENERGY=     -75.8825939

                                 -----------------------
                                 GRADIENT (HARTREE/BOHR)
                                 -----------------------
        ATOM     ZNUC       DE/DX         DE/DY         DE/DZ
 --------------------------------------------------------------
    1  O            8.0    -0.0348867     0.1494770     0.0000000
    2  H            1.0     0.0493738    -0.0104367     0.0000000
    3  H            1.0    -0.0144872    -0.1390403     0.0000000

          MAXIMUM GRADIENT = 0.1494770    RMS GRADIENT = 0.0712189

 NSERCH:   4  E=      -75.8825939378  GRAD. MAX=  0.1494770  R.M.S.=  0.0712189

          HESSIAN UPDATED USING THE BFGS FORMULA
             ACTUAL ENERGY CHANGE WAS  -0.0708898168
          PREDICTED ENERGY CHANGE WAS  -0.0924345701 RATIO=  0.767
          MIN SEARCH, CORRECT HESSIAN, TRYING PURE NR STEP
               NR STEP HAS LENGTH         =  36.314378
          TRIM/QA LAMBDA FOR NON-TS MODES =  -0.24529961
          TRIM/QA STEP HAS LENGTH         =   0.500000
          RADIUS OF STEP TAKEN=   0.50000  CURRENT TRUST RADIUS=   0.50000

 BEGINNING GEOMETRY SEARCH POINT NSERCH=   5 ...

 COORDINATES OF ALL ATOMS ARE (ANGS)
   ATOM   CHARGE       X              Y              Z
 ------------------------------------------------------------
 O           8.0  -0.2714363112  -0.0548908176   0.0000000000
 H           1.0  -0.7381843521   0.7611351188   0.0000000000
 H           1.0  -0.5434234067  -1.1586115172   0.0000000000

          INTERNUCLEAR DISTANCES (ANGS.)
          ------------------------------

                1 O          2 H          3 H     

   1 O       0.0000000    0.9400809 *  1.1367394 *
   2 H       0.9400809 *  0.0000000    1.9296007 *
   3 H       1.1367394 *  1.9296007 *  0.0000000  

  * ... LESS THAN  3.000

 ...... END OF ONE-ELECTRON INTEGRALS ......
 CPU     0: STEP CPU TIME=     0.00 TOTAL CPU TIME=          0.5 (      0.0 MIN)
 TOTAL WALL CLOCK TIME=          0.6 SECONDS, CPU UTILIZATION IS    81.03%
  ...... END OF TWO-ELECTRON INTEGRALS .....
 CPU     0: STEP CPU TIME=     0.01 TOTAL CPU TIME=          0.5 (      0.0 MIN)
 TOTAL WALL CLOCK TIME=          0.6 SECONDS, CPU UTILIZATION IS    81.36%

          --------------------------
                 RHF SCF CALCULATION
          --------------------------
     DENSITY MATRIX CONV=  4.00E-04

 DIRECT SCF CALCULATION, SCHWRZ=T   FDIFF=T,  DIRTHR=  0.00E+00 NITDIR=10

                                                                                                                   NONZERO     BLOCKS
 ITER EX DEM     TOTAL ENERGY        E CHANGE  DENSITY CHANGE     ORB. GRAD      VIR. SHIFT       DAMPING        INTEGRALS    SKIPPED
          ---------------START SECOND ORDER SCF---------------
   1  0  0      -75.9509387488   -75.9509387488   0.070830155   0.048276177     0.000000000     0.000000000          19819          0
   2  1  0      -75.9723950239    -0.0214562751   0.036570714   0.020858119     0.000000000     0.000000000          19819          0
   3  2  0      -75.9743408040    -0.0019457801   0.013103885   0.011562980     0.000000000     0.000000000          19819          0
   4  3  0      -75.9749981609    -0.0006573569   0.002862269   0.001261873     0.000000000     0.000000000          19819          0
   5  4  0      -75.9750204214    -0.0000222605   0.001087233   0.000397008     0.000000000     0.000000000          19819          0
   6  5  0      -75.9750232062    -0.0000027849   0.000230261   0.000102313     0.000000000     0.000000000          19819          0
   7  6  0      -75.9750233157    -0.0000001094   0.000078250   0.000028388     0.000000000     0.000000000          19819          0
   8  7  0      -75.9750233258    -0.0000000101   0.000008938   0.000004440     0.000000000     0.000000000          19819          0

          -----------------
          DENSITY CONVERGED
          -----------------
     TIME TO FORM FOCK OPERATORS=       0.0 SECONDS (       0.0 SEC/ITER)
     FOCK TIME ON FIRST ITERATION=       0.0, LAST ITERATION=       0.0
     TIME TO SOLVE SCF EQUATIONS=       0.0 SECONDS (       0.0 SEC/ITER)

 FINAL RHF ENERGY IS      -75.9750233258 AFTER   8 ITERATIONS
 ...... END OF RHF CALCULATION ......
 CPU     0: STEP CPU TIME=     0.03 TOTAL CPU TIME=          0.5 (      0.0 MIN)
 TOTAL WALL CLOCK TIME=          0.6 SECONDS, CPU UTILIZATION IS    80.95%
 ..... END OF 1-ELECTRON GRADIENT ......
 CPU     0: STEP CPU TIME=     0.01 TOTAL CPU TIME=          0.5 (      0.0 MIN)
 TOTAL WALL CLOCK TIME=          0.6 SECONDS, CPU UTILIZATION IS    82.54%
 ...... END OF 2-ELECTRON GRADIENT ......
 CPU     0: STEP CPU TIME=     0.00 TOTAL CPU TIME=          0.5 (      0.0 MIN)
 TOTAL WALL CLOCK TIME=          0.6 SECONDS, CPU UTILIZATION IS    82.54%

          NSERCH=  5     ENERGY=     -75.9750233

                                 -----------------------
                                 GRADIENT (HARTREE/BOHR)
                                 -----------------------
        ATOM     ZNUC       DE/DX         DE/DY         DE/DZ
 --------------------------------------------------------------
    1  O            8.0    -0.0199403     0.1211511     0.0000000
    2  H            1.0     0.0267982     0.0180520     0.0000000
    3  H            1.0    -0.0068579    -0.1392031     0.0000000

          MAXIMUM GRADIENT = 0.1392031    RMS GRADIENT = 0.0628435

 NSERCH:   5  E=      -75.9750233258  GRAD. MAX=  0.1392031  R.M.S.=  0.0628435

          HESSIAN UPDATED USING THE BFGS FORMULA
             ACTUAL ENERGY CHANGE WAS  -0.0924293880
          PREDICTED ENERGY CHANGE WAS  -0.0740825931 RATIO=  1.248
          MIN SEARCH, CORRECT HESSIAN, TRYING PURE NR STEP
               NR STEP HAS LENGTH         = 235.899622
          TRIM/QA LAMBDA FOR NON-TS MODES =  -0.34378798
          TRIM/QA STEP HAS LENGTH         =   0.500000
          RADIUS OF STEP TAKEN=   0.50000  CURRENT TRUST RADIUS=   0.50000

 BEGINNING GEOMETRY SEARCH POINT NSERCH=   6 ...

 COORDINATES OF ALL ATOMS ARE (ANGS)
   ATOM   CHARGE       X              Y              Z
 ------------------------------------------------------------
 O           8.0  -0.2753377488  -0.1814306659   0.0000000000
 H           1.0  -0.7449333124   0.6730537301  -0.0000000000
 H           1.0  -0.5327730088  -0.9439902801   0.0000000000

          INTERNUCLEAR DISTANCES (ANGS.)
          ------------------------------

                1 O          2 H          3 H     

   1 O       0.0000000    0.9750198 *  0.8048416 *
   2 H       0.9750198 *  0.0000000    1.6309026 *
   3 H       0.8048416 *  1.6309026 *  0.0000000  

  * ... LESS THAN  3.000

 ...... END OF ONE-ELECTRON INTEGRALS ......
 CPU     0: STEP CPU TIME=     0.00 TOTAL CPU TIME=          0.5 (      0.0 MIN)
 TOTAL WALL CLOCK TIME=          0.6 SECONDS, CPU UTILIZATION IS    81.25%
  ...... END OF TWO-ELECTRON INTEGRALS .....
 CPU     0: STEP CPU TIME=     0.00 TOTAL CPU TIME=          0.5 (      0.0 MIN)
 TOTAL WALL CLOCK TIME=          0.6 SECONDS, CPU UTILIZATION IS    80.00%

          --------------------------
                 RHF SCF CALCULATION
          --------------------------
     DENSITY MATRIX CONV=  4.00E-04

 DIRECT SCF CALCULATION, SCHWRZ=T   FDIFF=T,  DIRTHR=  0.00E+00 NITDIR=10

                                                                                                                   NONZERO     BLOCKS
 ITER EX DEM     TOTAL ENERGY        E CHANGE  DENSITY CHANGE     ORB. GRAD      VIR. SHIFT       DAMPING        INTEGRALS    SKIPPED
          ---------------START SECOND ORDER SCF---------------
   1  0  0      -75.9444363332   -75.9444363332   0.121235163   0.081346768     0.000000000     0.000000000          19819          0
   2  1  0      -75.9788626835    -0.0344263503   0.031708740   0.020157076     0.000000000     0.000000000          19819          0
   3  2  0      -75.9808574019    -0.0019947184   0.012838417   0.010361228     0.000000000     0.000000000          19819          0
   4  3  0      -75.9812209960    -0.0003635942   0.003189733   0.002304048     0.000000000     0.000000000          19819          0
   5  4  0      -75.9812435878    -0.0000225917   0.000730243   0.000354630     0.000000000     0.000000000          19819          0
   6  5  0      -75.9812450793    -0.0000014915   0.000361128   0.000095425     0.000000000     0.000000000          19819          0
   7  6  0      -75.9812452184    -0.0000001391   0.000040855   0.000012797     0.000000000     0.000000000          19819          0

          -----------------
          DENSITY CONVERGED
          -----------------
     TIME TO FORM FOCK OPERATORS=       0.0 SECONDS (       0.0 SEC/ITER)
     FOCK TIME ON FIRST ITERATION=       0.0, LAST ITERATION=       0.0
     TIME TO SOLVE SCF EQUATIONS=       0.0 SECONDS (       0.0 SEC/ITER)

 FINAL RHF ENERGY IS      -75.9812452184 AFTER   7 ITERATIONS
 ...... END OF RHF CALCULATION ......
 CPU     0: STEP CPU TIME=     0.05 TOTAL CPU TIME=          0.6 (      0.0 MIN)
 TOTAL WALL CLOCK TIME=          0.7 SECONDS, CPU UTILIZATION IS    82.61%
 ..... END OF 1-ELECTRON GRADIENT ......
 CPU     0: STEP CPU TIME=     0.00 TOTAL CPU TIME=          0.6 (      0.0 MIN)
 TOTAL WALL CLOCK TIME=          0.7 SECONDS, CPU UTILIZATION IS    82.61%
 ...... END OF 2-ELECTRON GRADIENT ......
 CPU     0: STEP CPU TIME=     0.00 TOTAL CPU TIME=          0.6 (      0.0 MIN)
 TOTAL WALL CLOCK TIME=          0.7 SECONDS, CPU UTILIZATION IS    81.43%

          NSERCH=  6     ENERGY=     -75.9812452

                                 -----------------------
                                 GRADIENT (HARTREE/BOHR)
                                 -----------------------
        ATOM     ZNUC       DE/DX         DE/DY         DE/DZ
 --------------------------------------------------------------
    1  O            8.0    -0.1061443    -0.2982506     0.0000000
    2  H            1.0    -0.0046206     0.0548178     0.0000000
    3  H            1.0     0.1107650     0.2434327     0.0000000

          MAXIMUM GRADIENT = 0.2982506    RMS GRADIENT = 0.1393536

 NSERCH:   6  E=      -75.9812452184  GRAD. MAX=  0.2982506  R.M.S.=  0.1393536

          HESSIAN UPDATED USING THE BFGS FORMULA
             ACTUAL ENERGY CHANGE WAS  -0.0062218926
          PREDICTED ENERGY CHANGE WAS  -0.0873561175 RATIO=  0.071
          MIN SEARCH, CORRECT HESSIAN, TRYING PURE NR STEP
               NR STEP HAS LENGTH         =   8.849466
          TRIM/QA LAMBDA FOR NON-TS MODES =  -0.53375329
          TRIM/QA STEP HAS LENGTH         =   0.250000
          RADIUS OF STEP TAKEN=   0.25000  CURRENT TRUST RADIUS=   0.25000

 BEGINNING GEOMETRY SEARCH POINT NSERCH=   7 ...

 COORDINATES OF ALL ATOMS ARE (ANGS)
   ATOM   CHARGE       X              Y              Z
 ------------------------------------------------------------
 O           8.0  -0.2117445498  -0.0977670519   0.0000000000
 H           1.0  -0.7573862499   0.6409143854  -0.0000000000
 H           1.0  -0.5839132703  -0.9955145495   0.0000000000

          INTERNUCLEAR DISTANCES (ANGS.)
          ------------------------------

                1 O          2 H          3 H     

   1 O       0.0000000    0.9183546 *  0.9718334 *
   2 H       0.9183546 *  0.0000000    1.6455979 *
   3 H       0.9718334 *  1.6455979 *  0.0000000  

  * ... LESS THAN  3.000

 ...... END OF ONE-ELECTRON INTEGRALS ......
 CPU     0: STEP CPU TIME=     0.01 TOTAL CPU TIME=          0.6 (      0.0 MIN)
 TOTAL WALL CLOCK TIME=          0.7 SECONDS, CPU UTILIZATION IS    82.86%
  ...... END OF TWO-ELECTRON INTEGRALS .....
 CPU     0: STEP CPU TIME=     0.00 TOTAL CPU TIME=          0.6 (      0.0 MIN)
 TOTAL WALL CLOCK TIME=          0.7 SECONDS, CPU UTILIZATION IS    81.69%

          --------------------------
                 RHF SCF CALCULATION
          --------------------------
     DENSITY MATRIX CONV=  1.00E-03

 DIRECT SCF CALCULATION, SCHWRZ=T   FDIFF=T,  DIRTHR=  0.00E+00 NITDIR=10

                                                                                                                   NONZERO     BLOCKS
 ITER EX DEM     TOTAL ENERGY        E CHANGE  DENSITY CHANGE     ORB. GRAD      VIR. SHIFT       DAMPING        INTEGRALS    SKIPPED
          ---------------START SECOND ORDER SCF---------------
   1  0  0      -76.0016460855   -76.0016460855   0.072417406   0.052049307     0.000000000     0.000000000          19819          0
   2  1  0      -76.0156324198    -0.0139863344   0.015621349   0.010819135     0.000000000     0.000000000          19819          0
   3  2  0      -76.0165753060    -0.0009428862   0.007675821   0.003847321     0.000000000     0.000000000          19819          0
   4  3  0      -76.0167239790    -0.0001486730   0.002206001   0.001726180     0.000000000     0.000000000          19819          0
   5  4  0      -76.0167423545    -0.0000183755   0.000788586   0.000409510     0.000000000     0.000000000          19819          0
   6  5  0      -76.0167439349    -0.0000015805   0.000129846   0.000076455     0.000000000     0.000000000          19819          0
   7  6  0      -76.0167440089    -0.0000000740   0.000043870   0.000021233     0.000000000     0.000000000          19819          0

          -----------------
          DENSITY CONVERGED
          -----------------
     TIME TO FORM FOCK OPERATORS=       0.0 SECONDS (       0.0 SEC/ITER)
     FOCK TIME ON FIRST ITERATION=       0.0, LAST ITERATION=       0.0
     TIME TO SOLVE SCF EQUATIONS=       0.0 SECONDS (       0.0 SEC/ITER)

 FINAL RHF ENERGY IS      -76.0167440089 AFTER   7 ITERATIONS
 ...... END OF RHF CALCULATION ......
 CPU     0: STEP CPU TIME=     0.03 TOTAL CPU TIME=          0.6 (      0.0 MIN)
 TOTAL WALL CLOCK TIME=          0.7 SECONDS, CPU UTILIZATION IS    82.43%
 ..... END OF 1-ELECTRON GRADIENT ......
 CPU     0: STEP CPU TIME=     0.01 TOTAL CPU TIME=          0.6 (      0.0 MIN)
 TOTAL WALL CLOCK TIME=          0.8 SECONDS, CPU UTILIZATION IS    82.67%
 ...... END OF 2-ELECTRON GRADIENT ......
 CPU     0: STEP CPU TIME=     0.00 TOTAL CPU TIME=          0.6 (      0.0 MIN)
 TOTAL WALL CLOCK TIME=          0.8 SECONDS, CPU UTILIZATION IS    82.67%

          NSERCH=  7     ENERGY=     -76.0167440

                                 -----------------------
                                 GRADIENT (HARTREE/BOHR)
                                 -----------------------
        ATOM     ZNUC       DE/DX         DE/DY         DE/DZ
 --------------------------------------------------------------
    1  O            8.0    -0.0277527     0.0535245     0.0000000
    2  H            1.0     0.0287117    -0.0123740     0.0000000
    3  H            1.0    -0.0009590    -0.0411505     0.0000000

          MAXIMUM GRADIENT = 0.0535245    RMS GRADIENT = 0.0264719

 NSERCH:   7  E=      -76.0167440089  GRAD. MAX=  0.0535245  R.M.S.=  0.0264719

          HESSIAN UPDATED USING THE BFGS FORMULA
             ACTUAL ENERGY CHANGE WAS  -0.0354987905
          PREDICTED ENERGY CHANGE WAS  -0.0654482223 RATIO=  0.542
          MIN SEARCH, CORRECT HESSIAN, TRYING PURE NR STEP
               NR STEP HAS LENGTH         =   4.092177
          TRIM/QA LAMBDA FOR NON-TS MODES =  -0.14148544
          TRIM/QA STEP HAS LENGTH         =   0.250000
          RADIUS OF STEP TAKEN=   0.25000  CURRENT TRUST RADIUS=   0.25000

 BEGINNING GEOMETRY SEARCH POINT NSERCH=   8 ...

 COORDINATES OF ALL ATOMS ARE (ANGS)
   ATOM   CHARGE       X              Y              Z
 ------------------------------------------------------------
 O           8.0  -0.1112597723  -0.1188990913   0.0000000000
 H           1.0  -0.8154749490   0.6235248557  -0.0000000000
 H           1.0  -0.6263093487  -0.9569929805   0.0000000000

          INTERNUCLEAR DISTANCES (ANGS.)
          ------------------------------

                1 O          2 H          3 H     

   1 O       0.0000000    1.0232851 *  0.9837060 *
   2 H       1.0232851 *  0.0000000    1.5917978 *
   3 H       0.9837060 *  1.5917978 *  0.0000000  

  * ... LESS THAN  3.000

 ...... END OF ONE-ELECTRON INTEGRALS ......
 CPU     0: STEP CPU TIME=     0.01 TOTAL CPU TIME=          0.6 (      0.0 MIN)
 TOTAL WALL CLOCK TIME=          0.8 SECONDS, CPU UTILIZATION IS    82.89%
  ...... END OF TWO-ELECTRON INTEGRALS .....
 CPU     0: STEP CPU TIME=     0.00 TOTAL CPU TIME=          0.6 (      0.0 MIN)
 TOTAL WALL CLOCK TIME=          0.8 SECONDS, CPU UTILIZATION IS    82.89%

          --------------------------
                 RHF SCF CALCULATION
          --------------------------
     DENSITY MATRIX CONV=  4.00E-04

 DIRECT SCF CALCULATION, SCHWRZ=T   FDIFF=T,  DIRTHR=  0.00E+00 NITDIR=10

                                                                                                                   NONZERO     BLOCKS
 ITER EX DEM     TOTAL ENERGY        E CHANGE  DENSITY CHANGE     ORB. GRAD      VIR. SHIFT       DAMPING        INTEGRALS    SKIPPED
          ---------------START SECOND ORDER SCF---------------
   1  0  0      -76.0041955555   -76.0041955555   0.047355803   0.037960895     0.000000000     0.000000000          19819          0
   2  1  0      -76.0122504385    -0.0080548830   0.016484921   0.008825017     0.000000000     0.000000000          19819          0
   3  2  0      -76.0129576740    -0.0007072355   0.006539881   0.003632244     0.000000000     0.000000000          19819          0
   4  3  0      -76.0130650536    -0.0001073796   0.000987751   0.001077499     0.000000000     0.000000000          19819          0
   5  4  0      -76.0130730555    -0.0000080019   0.000614171   0.000283195     0.000000000     0.000000000          19819          0
   6  5  0      -76.0130739105    -0.0000008550   0.000142344   0.000050594     0.000000000     0.000000000          19819          0
   7  6  0      -76.0130739423    -0.0000000318   0.000043248   0.000014632     0.000000000     0.000000000          19819          0

          -----------------
          DENSITY CONVERGED
          -----------------
     TIME TO FORM FOCK OPERATORS=       0.0 SECONDS (       0.0 SEC/ITER)
     FOCK TIME ON FIRST ITERATION=       0.0, LAST ITERATION=       0.0
     TIME TO SOLVE SCF EQUATIONS=       0.0 SECONDS (       0.0 SEC/ITER)

 FINAL RHF ENERGY IS      -76.0130739423 AFTER   7 ITERATIONS
 ...... END OF RHF CALCULATION ......
 CPU     0: STEP CPU TIME=     0.04 TOTAL CPU TIME=          0.7 (      0.0 MIN)
 TOTAL WALL CLOCK TIME=          0.8 SECONDS, CPU UTILIZATION IS    83.75%
 ..... END OF 1-ELECTRON GRADIENT ......
 CPU     0: STEP CPU TIME=     0.00 TOTAL CPU TIME=          0.7 (      0.0 MIN)
 TOTAL WALL CLOCK TIME=          0.8 SECONDS, CPU UTILIZATION IS    83.75%
 ...... END OF 2-ELECTRON GRADIENT ......
 CPU     0: STEP CPU TIME=     0.00 TOTAL CPU TIME=          0.7 (      0.0 MIN)
 TOTAL WALL CLOCK TIME=          0.8 SECONDS, CPU UTILIZATION IS    82.72%

          NSERCH=  8     ENERGY=     -76.0130739

                                 -----------------------
                                 GRADIENT (HARTREE/BOHR)
                                 -----------------------
        ATOM     ZNUC       DE/DX         DE/DY         DE/DZ
 --------------------------------------------------------------
    1  O            8.0     0.0780626    -0.0172960     0.0000000
    2  H            1.0    -0.0530734     0.0504803     0.0000000
    3  H            1.0    -0.0249892    -0.0331843     0.0000000

          MAXIMUM GRADIENT = 0.0780626    RMS GRADIENT = 0.0387063

 NSERCH:   8  E=      -76.0130739423  GRAD. MAX=  0.0780626  R.M.S.=  0.0387063

          HESSIAN UPDATED USING THE BFGS FORMULA
             ACTUAL ENERGY CHANGE WAS   0.0036700667
          PREDICTED ENERGY CHANGE WAS  -0.0109570160 RATIO= -0.335
          MIN SEARCH, CORRECT HESSIAN, TRYING PURE NR STEP
               NR STEP HAS LENGTH         =   0.986639
          TRIM/QA LAMBDA FOR NON-TS MODES =  -0.22066773
          TRIM/QA STEP HAS LENGTH         =   0.125000
          RADIUS OF STEP TAKEN=   0.12500  CURRENT TRUST RADIUS=   0.12500

 BEGINNING GEOMETRY SEARCH POINT NSERCH=   9 ...

 COORDINATES OF ALL ATOMS ARE (ANGS)
   ATOM   CHARGE       X              Y              Z
 ------------------------------------------------------------
 O           8.0  -0.1415816215  -0.1047758699   0.0000000000
 H           1.0  -0.7897397158   0.5812958285  -0.0000000000
 H           1.0  -0.6217227326  -0.9288871746   0.0000000000

          INTERNUCLEAR DISTANCES (ANGS.)
          ------------------------------

                1 O          2 H          3 H     

   1 O       0.0000000    0.9438238 *  0.9537793 *
   2 H       0.9438238 *  0.0000000    1.5195007 *
   3 H       0.9537793 *  1.5195007 *  0.0000000  

  * ... LESS THAN  3.000

 ...... END OF ONE-ELECTRON INTEGRALS ......
 CPU     0: STEP CPU TIME=     0.01 TOTAL CPU TIME=          0.7 (      0.0 MIN)
 TOTAL WALL CLOCK TIME=          0.8 SECONDS, CPU UTILIZATION IS    83.95%
  ...... END OF TWO-ELECTRON INTEGRALS .....
 CPU     0: STEP CPU TIME=     0.00 TOTAL CPU TIME=          0.7 (      0.0 MIN)
 TOTAL WALL CLOCK TIME=          0.8 SECONDS, CPU UTILIZATION IS    82.93%

          --------------------------
                 RHF SCF CALCULATION
          --------------------------
     DENSITY MATRIX CONV=  4.00E-04

 DIRECT SCF CALCULATION, SCHWRZ=T   FDIFF=T,  DIRTHR=  0.00E+00 NITDIR=10

                                                                                                                   NONZERO     BLOCKS
 ITER EX DEM     TOTAL ENERGY        E CHANGE  DENSITY CHANGE     ORB. GRAD      VIR. SHIFT       DAMPING        INTEGRALS    SKIPPED
          ---------------START SECOND ORDER SCF---------------
   1  0  0      -76.0183554336   -76.0183554336   0.028157191   0.021492264     0.000000000     0.000000000          19819          0
   2  1  0      -76.0207080562    -0.0023526225   0.009325472   0.005478224     0.000000000     0.000000000          19819          0
   3  2  0      -76.0208598573    -0.0001518012   0.003232060   0.002613703     0.000000000     0.000000000          19819          0
   4  3  0      -76.0208925753    -0.0000327180   0.000874950   0.000334743     0.000000000     0.000000000          19819          0
   5  4  0      -76.0208940235    -0.0000014482   0.000254247   0.000107486     0.000000000     0.000000000          19819          0
   6  5  0      -76.0208941432    -0.0000001197   0.000037722   0.000018108     0.000000000     0.000000000          19819          0

          -----------------
          DENSITY CONVERGED
          -----------------
     TIME TO FORM FOCK OPERATORS=       0.0 SECONDS (       0.0 SEC/ITER)
     FOCK TIME ON FIRST ITERATION=       0.0, LAST ITERATION=       0.0
     TIME TO SOLVE SCF EQUATIONS=       0.0 SECONDS (       0.0 SEC/ITER)

 FINAL RHF ENERGY IS      -76.0208941432 AFTER   6 ITERATIONS
 ...... END OF RHF CALCULATION ......
 CPU     0: STEP CPU TIME=     0.03 TOTAL CPU TIME=          0.7 (      0.0 MIN)
 TOTAL WALL CLOCK TIME=          0.8 SECONDS, CPU UTILIZATION IS    83.53%
 ..... END OF 1-ELECTRON GRADIENT ......
 CPU     0: STEP CPU TIME=     0.00 TOTAL CPU TIME=          0.7 (      0.0 MIN)
 TOTAL WALL CLOCK TIME=          0.9 SECONDS, CPU UTILIZATION IS    82.56%
 ...... END OF 2-ELECTRON GRADIENT ......
 CPU     0: STEP CPU TIME=     0.01 TOTAL CPU TIME=          0.7 (      0.0 MIN)
 TOTAL WALL CLOCK TIME=          0.9 SECONDS, CPU UTILIZATION IS    83.72%

          NSERCH=  9     ENERGY=     -76.0208941

                                 -----------------------
                                 GRADIENT (HARTREE/BOHR)
                                 -----------------------
        ATOM     ZNUC       DE/DX         DE/DY         DE/DZ
 --------------------------------------------------------------
    1  O            8.0     0.0142164     0.0110868     0.0000000
    2  H            1.0    -0.0039519    -0.0025224     0.0000000
    3  H            1.0    -0.0102645    -0.0085644     0.0000000

          MAXIMUM GRADIENT = 0.0142164    RMS GRADIENT = 0.0076428

[...]
   6  5  0      -76.0212630136    -0.0000000003   0.000002128   0.000000848     0.000000000     0.000000000          19819          0

          -----------------
          DENSITY CONVERGED
          -----------------
     TIME TO FORM FOCK OPERATORS=       0.0 SECONDS (       0.0 SEC/ITER)
     FOCK TIME ON FIRST ITERATION=       0.0, LAST ITERATION=       0.0
     TIME TO SOLVE SCF EQUATIONS=       0.0 SECONDS (       0.0 SEC/ITER)

 FINAL RHF ENERGY IS      -76.0212630136 AFTER   6 ITERATIONS
 ...... END OF RHF CALCULATION ......
 CPU     0: STEP CPU TIME=     0.02 TOTAL CPU TIME=          1.9 (      0.0 MIN)
 TOTAL WALL CLOCK TIME=          2.2 SECONDS, CPU UTILIZATION IS    86.88%
 ..... END OF 1-ELECTRON GRADIENT ......
 CPU     0: STEP CPU TIME=     0.01 TOTAL CPU TIME=          1.9 (      0.0 MIN)
 TOTAL WALL CLOCK TIME=          2.2 SECONDS, CPU UTILIZATION IS    86.94%
 ...... END OF 2-ELECTRON GRADIENT ......
 CPU     0: STEP CPU TIME=     0.01 TOTAL CPU TIME=          1.9 (      0.0 MIN)
 TOTAL WALL CLOCK TIME=          2.2 SECONDS, CPU UTILIZATION IS    87.39%

 UNITS ARE HARTREE/BOHR    E'X               E'Y               E'Z 
    1 O                0.001910199       0.002775583       0.000000000
    2 H               -0.000161363      -0.000357641       0.000000000
    3 H               -0.001748835      -0.002417942       0.000000000
  $VIB   
          IVIB=   2 IATOM=   3 ICOORD=   1 E=      -76.0212630136
  1.910198917E-03 2.775583222E-03 0.000000000E+00-1.613634413E-04-3.576408256E-04
  0.000000000E+00-1.748835476E-03-2.417942396E-03 0.000000000E+00
 -2.433738526E+00-2.717028987E-01-1.445885332E-16
1   ATOM  3
                                        -------------------
   COORD  2                             NUCLEAR COORDINATES
                                        -------------------
     VIB  2

                       ATOM             X              Y              Z

                 1  O               -0.299117      -0.208132       0.000000
                 2  H               -1.481361       1.122176      -0.000000
                 3  H               -1.154349      -1.778894       0.000000
 ...... END OF ONE-ELECTRON INTEGRALS ......
 CPU     0: STEP CPU TIME=     0.01 TOTAL CPU TIME=          2.0 (      0.0 MIN)
 TOTAL WALL CLOCK TIME=          2.2 SECONDS, CPU UTILIZATION IS    87.44%
  ...... END OF TWO-ELECTRON INTEGRALS .....
 CPU     0: STEP CPU TIME=     0.00 TOTAL CPU TIME=          2.0 (      0.0 MIN)
 TOTAL WALL CLOCK TIME=          2.2 SECONDS, CPU UTILIZATION IS    87.05%

          --------------------------
                 RHF SCF CALCULATION
          --------------------------
     DENSITY MATRIX CONV=  2.00E-05

 DIRECT SCF CALCULATION, SCHWRZ=T   FDIFF=T,  DIRTHR=  0.00E+00 NITDIR=10

                                                                                                                   NONZERO     BLOCKS
 ITER EX DEM     TOTAL ENERGY        E CHANGE  DENSITY CHANGE     ORB. GRAD      VIR. SHIFT       DAMPING        INTEGRALS    SKIPPED
          ---------------START SECOND ORDER SCF---------------
   1  0  0      -76.0212375221   -76.0212375221   0.001982731   0.001093696     0.000000000     0.000000000          19819          0
   2  1  0      -76.0212455837    -0.0000080616   0.000387476   0.000219010     0.000000000     0.000000000          19819          0
   3  2  0      -76.0212460063    -0.0000004225   0.000132907   0.000102236     0.000000000     0.000000000          19819          0
   4  3  0      -76.0212460754    -0.0000000691   0.000034795   0.000021766     0.000000000     0.000000000          19819          0
   5  4  0      -76.0212460793    -0.0000000039   0.000009833   0.000004918     0.000000000     0.000000000          19819          0
   6  5  0      -76.0212460796    -0.0000000003   0.000002924   0.000000859     0.000000000     0.000000000          19819          0

          -----------------
          DENSITY CONVERGED
          -----------------
     TIME TO FORM FOCK OPERATORS=       0.0 SECONDS (       0.0 SEC/ITER)
     FOCK TIME ON FIRST ITERATION=       0.0, LAST ITERATION=       0.0
     TIME TO SOLVE SCF EQUATIONS=       0.0 SECONDS (       0.0 SEC/ITER)

 FINAL RHF ENERGY IS      -76.0212460796 AFTER   6 ITERATIONS
 ...... END OF RHF CALCULATION ......
 CPU     0: STEP CPU TIME=     0.03 TOTAL CPU TIME=          2.0 (      0.0 MIN)
 TOTAL WALL CLOCK TIME=          2.3 SECONDS, CPU UTILIZATION IS    87.22%
 ..... END OF 1-ELECTRON GRADIENT ......
 CPU     0: STEP CPU TIME=     0.01 TOTAL CPU TIME=          2.0 (      0.0 MIN)
 TOTAL WALL CLOCK TIME=          2.3 SECONDS, CPU UTILIZATION IS    87.28%
 ...... END OF 2-ELECTRON GRADIENT ......
 CPU     0: STEP CPU TIME=     0.00 TOTAL CPU TIME=          2.0 (      0.0 MIN)
 TOTAL WALL CLOCK TIME=          2.3 SECONDS, CPU UTILIZATION IS    87.28%

 UNITS ARE HARTREE/BOHR    E'X               E'Y               E'Z 
    1 O                0.002124327       0.004888638       0.000000000
    2 H                0.000265536       0.000226712       0.000000000
    3 H               -0.002389862      -0.005115350       0.000000000
  $VIB   
          IVIB=   2 IATOM=   3 ICOORD=   2 E=      -76.0212460796
  2.124326507E-03 4.888638052E-03 0.000000000E+00 2.655355095E-04 2.267119766E-04
  0.000000000E+00-2.389862017E-03-5.115350028E-03 0.000000000E+00
 -2.425475082E+00-2.822126525E-01-1.452474891E-16
1   ATOM  3
                                        -------------------
   COORD  3                             NUCLEAR COORDINATES
                                        -------------------
     VIB  2

                       ATOM             X              Y              Z

                 1  O               -0.299117      -0.208132       0.000000
                 2  H               -1.481361       1.122176      -0.000000
                 3  H               -1.154349      -1.768894      -0.010000
 ...... END OF ONE-ELECTRON INTEGRALS ......
 CPU     0: STEP CPU TIME=     0.01 TOTAL CPU TIME=          2.0 (      0.0 MIN)
 TOTAL WALL CLOCK TIME=          2.3 SECONDS, CPU UTILIZATION IS    87.34%
  ...... END OF TWO-ELECTRON INTEGRALS .....
 CPU     0: STEP CPU TIME=     0.00 TOTAL CPU TIME=          2.0 (      0.0 MIN)
 TOTAL WALL CLOCK TIME=          2.3 SECONDS, CPU UTILIZATION IS    86.96%

          --------------------------
                 RHF SCF CALCULATION
          --------------------------
     DENSITY MATRIX CONV=  2.00E-05

 DIRECT SCF CALCULATION, SCHWRZ=T   FDIFF=T,  DIRTHR=  0.00E+00 NITDIR=10

                                                                                                                   NONZERO     BLOCKS
 ITER EX DEM     TOTAL ENERGY        E CHANGE  DENSITY CHANGE     ORB. GRAD      VIR. SHIFT       DAMPING        INTEGRALS    SKIPPED
          ---------------START SECOND ORDER SCF---------------
   1  0  0      -76.0212666950   -76.0212666950   0.001797042   0.000756826     0.000000000     0.000000000          30075          0
   2  1  0      -76.0212713744    -0.0000046793   0.000577053   0.000178844     0.000000000     0.000000000          30075          0
   3  2  0      -76.0212717391    -0.0000003647   0.000212854   0.000041981     0.000000000     0.000000000          30075          0
   4  3  0      -76.0212717554    -0.0000000163   0.000093278   0.000011759     0.000000000     0.000000000          30075          0
   5  4  0      -76.0212717580    -0.0000000026   0.000006815   0.000002529     0.000000000     0.000000000          30075          0
   6  5  0      -76.0212717581    -0.0000000001   0.000005152   0.000001357     0.000000000     0.000000000          30075          0

          -----------------
          DENSITY CONVERGED
          -----------------
     TIME TO FORM FOCK OPERATORS=       0.0 SECONDS (       0.0 SEC/ITER)
     FOCK TIME ON FIRST ITERATION=       0.0, LAST ITERATION=       0.0
     TIME TO SOLVE SCF EQUATIONS=       0.0 SECONDS (       0.0 SEC/ITER)

 FINAL RHF ENERGY IS      -76.0212717581 AFTER   6 ITERATIONS
 ...... END OF RHF CALCULATION ......
 CPU     0: STEP CPU TIME=     0.03 TOTAL CPU TIME=          2.0 (      0.0 MIN)
 TOTAL WALL CLOCK TIME=          2.3 SECONDS, CPU UTILIZATION IS    87.12%
 ..... END OF 1-ELECTRON GRADIENT ......
 CPU     0: STEP CPU TIME=     0.01 TOTAL CPU TIME=          2.0 (      0.0 MIN)
 TOTAL WALL CLOCK TIME=          2.3 SECONDS, CPU UTILIZATION IS    87.55%
 ...... END OF 2-ELECTRON GRADIENT ......
 CPU     0: STEP CPU TIME=     0.00 TOTAL CPU TIME=          2.0 (      0.0 MIN)
 TOTAL WALL CLOCK TIME=          2.3 SECONDS, CPU UTILIZATION IS    87.18%

 UNITS ARE HARTREE/BOHR    E'X               E'Y               E'Z 
    1 O                0.000013101       0.000013677       0.000000177
    2 H               -0.000002890      -0.000001211      -0.000000125
    3 H               -0.000010211      -0.000012466      -0.000000052
  $VIB   
          IVIB=   2 IATOM=   3 ICOORD=   3 E=      -76.0212717581
  1.310082805E-05 1.367706297E-05 1.767257661E-07-2.890320676E-06-1.211348892E-06
 -1.252001479E-07-1.021050741E-05-1.246571408E-05-5.152561839E-08
 -2.426906559E+00-2.744916438E-01-1.191224494E-02
 ...... END OF NUMERICAL HESSIAN CALCULATION ......
 CPU     0: STEP CPU TIME=     0.02 TOTAL CPU TIME=          2.1 (      0.0 MIN)
 TOTAL WALL CLOCK TIME=          2.4 SECONDS, CPU UTILIZATION IS    87.29%

          ---------------
          ENERGY GRADIENT
          ---------------

 UNITS ARE HARTREE/BOHR    E'X               E'Y               E'Z 
    1 O                0.000004660      -0.000002418       0.000000000
    2 H               -0.000003129      -0.000000928       0.000000000
    3 H               -0.000001531       0.000003346       0.000000000

          -------------------------------
          CARTESIAN FORCE CONSTANT MATRIX
          -------------------------------

                                   1                          2
                               O                          H         
                          X        Y        Z        X        Y        Z
  1   O            X 0.503562-0.041799-0.000000-0.313511 0.258911-0.000000
                   Y-0.041799 0.868489-0.000000 0.321644-0.372496-0.000000
                   Z-0.000000-0.000000 0.000015 0.000000-0.000000-0.000014
  2   H            X-0.313511 0.321644 0.000000 0.297714-0.294715 0.000000
                   Y 0.258911-0.372496-0.000000-0.294715 0.395414-0.000000
                   Z-0.000000-0.000000-0.000014 0.000000-0.000000 0.000007
  3   H            X-0.190074-0.279848 0.000000 0.015806 0.035798 0.000000
                   Y-0.217108-0.495989 0.000000-0.026928-0.022918 0.000000
                   Z 0.000000 0.000000-0.000012-0.000000 0.000000 0.000012

                                   3
                               H         
                          X        Y        Z
  3   H            X 0.174280 0.244046-0.000000
                   Y 0.244046 0.518903-0.000000
                   Z-0.000000-0.000000 0.000005

          ------------------------          ----------------
          DIPOLE DERIVATIVE TENSOR          (DEBYE/ANGSTROM)
          ------------------------          ----------------

        ATOM                 MU-X           MU-Y           MU-Z
     O          D/DX    -2.420341804    0.075557020    0.000000000
                D/DY     0.075476559   -3.080797865    0.000000000
                D/DZ    -0.000000463   -0.000000061   -4.501928389
     H          D/DX     1.127644218    0.450582935    0.000000000
                D/DY     0.195086385    1.623134102   -0.000000000
                D/DZ    -0.000002389   -0.000000252    2.251086505
     H          D/DX     1.293209535   -0.525949945   -0.000000000
                D/DY    -0.270829618    1.457540882    0.000000000
                D/DZ     0.000002630    0.000000331    2.251089825

          --------------------------------------------------------
          NORMAL COORDINATE ANALYSIS IN THE HARMONIC APPROXIMATION
          --------------------------------------------------------

          ATOMIC WEIGHTS (AMU)

    1     O                15.99491
    2     H                 1.00782
    3     H                 1.00782

 MODES    1 TO    6 ARE TAKEN AS ROTATIONS AND TRANSLATIONS.

 ANALYZING SYMMETRY OF NORMAL MODES...

     FREQUENCIES IN CM**-1, IR INTENSITIES IN DEBYE**2/AMU-ANGSTROM**2,
     REDUCED MASSES IN AMU.

                            1           2           3           4           5
       FREQUENCY:        34.72       12.91        2.28        0.02        0.44  
        SYMMETRY:         A           A           A           A           A   
    REDUCED MASS:      1.04425     1.00870     8.61217     6.00394     5.90540
    IR INTENSITY:      3.46425     0.02021     0.11183     0.00000     0.00056

  1   O            X -0.00769359  0.00000097  0.00000649  0.13025160  0.19628051
                   Y  0.04762784 -0.00000256 -0.00000478  0.19636265 -0.12965662
                   Z  0.00000070 -0.00762930  0.24272585 -0.00000001 -0.00000797
  2   H            X -0.54424825  0.00002497  0.00001250  0.13022580  0.18945355
                   Y -0.42920412  0.00001846  0.00000056  0.19634331 -0.13571840
                   Z -0.00000714 -0.67967445  0.15328117 -0.00000005 -0.00000186
  3   H            X  0.62169860 -0.00002688 -0.00000055  0.13027131  0.20425938
                   Y -0.29726006  0.00001295 -0.00000092  0.19635025 -0.13403547
                   Z  0.00005411  0.72756760  0.18358590  0.00000005 -0.00000757

 TRANS. SAYVETZ    X -0.04500180  0.00001353  0.00011593  2.34589814  3.53628290
                   Y  0.02965419 -0.00000935 -0.00007680  3.53656922 -2.34571071
                   Z  0.00005846 -0.07376209  4.22188115 -0.00000008 -0.00013695
               TOTAL  0.05389375  0.07376210  4.22188115  4.24388501  4.24354280

   ROT. SAYVETZ    X -0.00009393 -2.05664829 -0.02882545 -0.00000015  0.00000766
                   Y  0.00003146 -0.17431090 -0.14047414 -0.00000001  0.00000687
                   Z  2.47917140 -0.00011017 -0.00002775  0.00009576  0.03148575
               TOTAL  2.47917140  2.06402192  0.14340115  0.00009576  0.03148576

                            6           7           8           9
       FREQUENCY:        22.79     1644.51     4163.59     4310.03  
        SYMMETRY:         A           A           A           A   
    REDUCED MASS:      1.06439     1.08538     1.04265     1.08692
    IR INTENSITY:     11.19118     2.82602     0.54123     2.35792

  1   O            X -0.00000002 -0.06861250 -0.04690930  0.00781157
                   Y -0.00000126 -0.00775874 -0.00527578 -0.06924101
                   Z -0.05954700 -0.00000000  0.00000000 -0.00000000
  2   H            X  0.00001606  0.49977638  0.43777554 -0.44917072
                   Y  0.00001301  0.45653741 -0.53590507  0.50539959
                   Z  0.71188713  0.00000001  0.00000021 -0.00000000
  3   H            X -0.00001887  0.58923113  0.30673620  0.32519790
                   Y  0.00000907 -0.33342168  0.61963054  0.59349917
                   Z  0.65511629 -0.00000001 -0.00000023  0.00000000

 TRANS. SAYVETZ    X -0.00000310  0.00007831  0.00002749  0.00000250
                   Y  0.00000205 -0.00002127 -0.00000503 -0.00000612
                   Z  0.42525130 -0.00000000  0.00000002  0.00000000
               TOTAL  0.42525130  0.00008114  0.00002795  0.00000661

   ROT. SAYVETZ    X -0.07055841  0.00000003  0.00000065 -0.00000001
                   Y  1.36438755  0.00000001  0.00000004  0.00000000
                   Z -0.00007426  0.00020574  0.00000797  0.00000545
               TOTAL  1.36621078  0.00020574  0.00000800  0.00000545

 REFERENCE ON SAYVETZ CONDITIONS - A. SAYVETZ, J.CHEM.PHYS., 7, 383-389(1939).

 NOTE - THE MODES J,K ARE ORTHONORMALIZED ACCORDING TO
 SUM ON I   M(I) * (X(I,J)*X(I,K) + Y(I,J)*Y(I,K) + Z(I,J)*Z(I,K)) = DELTA(J,K)

  MODE FREQ(CM**-1)  SYMMETRY  RED. MASS  IR INTENS.
     1      34.725    A        1.044253    3.464251
     2      12.914    A        1.008705    0.020210
     3       2.285    A        8.612171    0.111835
     4       0.015    A        6.003941    0.000000
     5       0.439    A        5.905404    0.000557
     6      22.795    A        1.064389   11.191176
     7    1644.507    A        1.085383    2.826023
     8    4163.590    A        1.042645    0.541227
     9    4310.029    A        1.086917    2.357917

     -------------------------------
     THERMOCHEMISTRY AT T=  298.15 K
     -------------------------------

 USING IDEAL GAS, RIGID ROTOR, HARMONIC NORMAL MODE APPROXIMATIONS.
 P=  1.01325E+05 PASCAL.
 ALL FREQUENCIES ARE SCALED BY   1.00000
 THE MOMENTS OF INERTIA ARE (IN AMU*BOHR**2)
              1.88155             4.26573             6.14728
 THE ROTATIONAL SYMMETRY NUMBER IS  1.0
 THE ROTATIONAL CONSTANTS ARE (IN GHZ)
    958.29881   422.69149   293.31470
      7 -      9 VIBRATIONAL MODES ARE USED IN THERMOCHEMISTRY.
 THE HARMONIC ZERO POINT ENERGY IS (SCALED BY   1.000)
        0.023051 HARTREE/MOLECULE     5059.063087 CM**-1/MOLECULE 
       14.464602 KCAL/MOL               60.519894 KJ/MOL

               Q               LN Q
 ELEC.     1.00000E+00       0.000000
 TRANS.    3.00431E+06      14.915558
 ROT.      7.95129E+01       4.375920
 VIB.      1.00036E+00       0.000358
 TOT.      2.38967E+08      19.291835

              E         H         G         CV        CP        S
           KJ/MOL    KJ/MOL    KJ/MOL   J/MOL-K   J/MOL-K   J/MOL-K
 ELEC.      0.000     0.000     0.000     0.000     0.000     0.000
 TRANS.     3.718     6.197   -36.975    12.472    20.786   144.800
 ROT.       3.718     3.718   -10.848    12.472    12.472    48.855
 VIB.      60.527    60.527    60.519     0.187     0.187     0.027
 TOTAL     67.964    70.443    12.697    25.131    33.445   193.681
 VIB. THERMAL CORRECTION E(T)-E(0) = H(T)-H(0) =         7.039 J/MOL

              E         H         G         CV        CP        S
         KCAL/MOL  KCAL/MOL  KCAL/MOL CAL/MOL-K CAL/MOL-K CAL/MOL-K
 ELEC.      0.000     0.000     0.000     0.000     0.000     0.000
 TRANS.     0.889     1.481    -8.837     2.981     4.968    34.608
 ROT.       0.889     0.889    -2.593     2.981     2.981    11.677
 VIB.      14.466    14.466    14.464     0.045     0.045     0.006
 TOTAL     16.244    16.836     3.035     6.006     7.994    46.291
 VIB. THERMAL CORRECTION E(T)-E(0) = H(T)-H(0) =         1.682 CAL/MOL
 ......END OF NORMAL COORDINATE ANALYSIS......
 CPU     0: STEP CPU TIME=     0.00 TOTAL CPU TIME=          2.1 (      0.0 MIN)
 TOTAL WALL CLOCK TIME=          2.4 SECONDS, CPU UTILIZATION IS    87.29%
                580000  WORDS OF DYNAMIC MEMORY USED
 EXECUTION OF GAMESS TERMINATED NORMALLY Wed Apr 24 12:04:00 2024
 DDI: 263640 bytes (0.3 MB / 0 MWords) used by master data server.

 ----------------------------------------
 CPU timing information for all processes
 ========================================
 0: 0.756 + 1.545 = 2.302
 1: 1.208 + 0.103 = 1.311
 2: 1.260 + 0.91 = 1.352
 3: 1.128 + 0.107 = 1.236
 4: 1.205 + 0.93 = 1.299
 5: 1.203 + 0.62 = 1.266
 6: 1.189 + 0.99 = 1.289
 7: 1.86 + 0.76 = 1.163
 8: 0.136 + 0.09 = 0.145
 9: 0.105 + 0.27 = 0.133
 10: 0.113 + 0.24 = 0.137
 11: 0.115 + 0.26 = 0.141
 12: 0.136 + 0.23 = 0.160
 13: 0.134 + 0.16 = 0.151
 14: 0.122 + 0.13 = 0.135
 15: 0.112 + 0.14 = 0.127
 ----------------------------------------
else
unset echo
----- accounting info -----
Files used on the master node cn0170 were:
-rw-------. 1 lever046 lever046      983 Apr 24 12:03 /tmp/gms_h2o_hf_nosmd_opt.F05
-rw-------. 1 lever046 lever046 68812800 Apr 24 12:04 /tmp/gms_h2o_hf_nosmd_opt.F10
-rw-------. 1 lever046 lever046        7 Apr 24 12:03 /tmp/gms_h2o_hf_nosmd_opt.nodes.mpd
ls: No match.
ls: No match.
ls: No match.
Wed Apr 24 12:04:02 CDT 2024
0.393u 0.268s 0:11.50 5.6%	0+0k 8624+768io 8pf+0w
