/home/lever046/lever046/psi4conda/etc/profile.d/conda.cshnconda: No such file or directory.
----- GAMESS execution script 'rungms' -----
This job is running on host acn219
under operating system Linux at Wed Apr 24 12:16:22 CDT 2024
SLURM has assigned the following compute nodes to this run:
acn219
Available scratch disk space (Kbyte units) at beginning of the job is
Filesystem           1K-blocks      Used Available Use% Mounted on
tmpfs                  9982804     36892   9929528   1% /tmp
GAMESS temporary binary files will be written to /tmp
GAMESS supplementary output files will be written to /scratch.global/lever046/gamess/163404702
Copying input file gms_h2o_hf_nosmd_ram.inp to your run's scratch directory...
cp gms_h2o_hf_nosmd_ram.inp /tmp/gms_h2o_hf_nosmd_ram.F05
unset echo
setenv I_MPI_WAIT_MODE enable
setenv I_MPI_PIN disable
setenv I_MPI_DEBUG 0
setenv I_MPI_STATS 0
setenv I_MPI_DAT_LIBRARY libdat2.so
setenv I_MPI_SHM_LMT shm
unset echo
MPI kickoff will run GAMESS on 8 cores in 1 nodes.
The binary to be executed is /common/software/install/migrated/gamess/october_2019/gamess.00.x
MPI will run 8 compute processes and 8 data servers,
    placing 8 of each process type onto each node.
The scratch disk space on each node is /tmp, with free space
Filesystem           1K-blocks      Used Available Use% Mounted on
tmpfs                  9982804     36904   9929516   1% /tmp
setenv I_MPI_HYDRA_ENV all
setenv I_MPI_PERHOST 16
unset echo
if ( impi == impi ) then
mpirun -hostfile /tmp/gms_h2o_hf_nosmd_ram.processes.mpd -np 16 /common/software/install/migrated/gamess/october_2019/gamess.00.x
srun: Job 163404702 step creation temporarily disabled, retrying (Requested nodes are busy)
srun: Step created for job 163404702
          ******************************************************
          *         GAMESS VERSION = 30 SEP 2019 (R2)          *
          *             FROM IOWA STATE UNIVERSITY             *
          * M.W.SCHMIDT, K.K.BALDRIDGE, J.A.BOATZ, S.T.ELBERT, *
          *   M.S.GORDON, J.H.JENSEN, S.KOSEKI, N.MATSUNAGA,   *
          *          K.A.NGUYEN, S.J.SU, T.L.WINDUS,           *
          *       TOGETHER WITH M.DUPUIS, J.A.MONTGOMERY       *
          *         J.COMPUT.CHEM.  14, 1347-1363(1993)        *
          **************** 64 BIT INTEL VERSION ****************

  SINCE 1993, STUDENTS AND POSTDOCS WORKING AT IOWA STATE UNIVERSITY
  AND ALSO IN THEIR VARIOUS JOBS AFTER LEAVING ISU HAVE MADE IMPORTANT
  CONTRIBUTIONS TO THE CODE:
     IVANA ADAMOVIC, CHRISTINE AIKENS, YURI ALEXEEV, POOJA ARORA,
     ANDREY ASADCHEV, ROB BELL, PRADIPTA BANDYOPADHYAY, JONATHAN BENTZ,
     COLLEEN BERTONI, BRETT BODE, KURT BRORSEN, CALEB CARLIN, GALINA CHABAN,
     WEI CHEN, CHEOL HO CHOI, PAUL DAY, ALBERT DEFUSCO, NUWAN DESILVA,
     TIM DUDLEY, DMITRI FEDOROV, ALEX FINDLATER, GRAHAM FLETCHER, 
     MARK FREITAG, KURT GLAESEMANN, EMILIE B GUIDEZ, ANASTASIA GUNINA, 
     DAN KEMP, SAROM SOK LEANG, GRANT MERRILL,
     NORIYUKI MINEZAWA, JONATHAN MULLIN,
     TAKESHI NAGATA, SEAN NEDD, HEATHER NETZLOFF, BOSILJKA NJEGIC, RYAN OLSON,
     MIKE PAK, BUU PHAM, DAVID POOLE,
     SPENCER PRUITT, LUKE ROSKOP, TOSAPORN SATTASATHUCHANA,
     JIM SHOEMAKER, LYUDMILA SLIPCHENKO,
     TONY SMITH, JIE SONG, TETSUYA TAKETSUGU, SIMON WEBB,
     JORGE LUIS GALVEZ VALLEJO, PENG XU, SOOHAENG YOO,
     FEDERICO ZAHARIEV

  ADDITIONAL CODE HAS BEEN PROVIDED BY COLLABORATORS IN OTHER GROUPS:
     IOWA STATE UNIVERSITY:
          JOE IVANIC, AARON WEST, LAIMUTIS BYTAUTAS, KLAUS RUEDENBERG
     UNIVERSITY OF TOKYO: KIMIHIKO HIRAO, TAKAHITO NAKAJIMA,
          TAKAO TSUNEDA, MUNEAKI KAMIYA, SUSUMU YANAGISAWA,
          KIYOSHI YAGI, MAHITO CHIBA, SEIKEN TOKURA, NAOAKI KAWAKAMI
     UNIVERSITY OF AARHUS: FRANK JENSEN
     UNIVERSITY OF IOWA: VISVALDAS KAIRYS, HUI LI
     NATIONAL INST. OF STANDARDS AND TECHNOLOGY: WALT STEVENS, DAVID GARMER
     UNIVERSITY OF PISA: BENEDETTA MENNUCCI, JACOPO TOMASI
     UNIVERSITY OF MEMPHIS: HENRY KURTZ, PRAKASHAN KORAMBATH
     UNIVERSITY OF ALBERTA: TOBY ZENG, MARIUSZ KLOBUKOWSKI
     UNIVERSITY OF NEW ENGLAND: MARK SPACKMAN
     MIE UNIVERSITY: HIROAKI UMEDA
     NAT. INST. OF ADVANCED INDUSTRIAL SCIENCE AND TECHNOLOGY: KAZUO KITAURA
     MICHIGAN STATE UNIVERSITY:
          KAROL KOWALSKI, MARTA WLOCH, JEFFREY GOUR, JESSE LUTZ,
          WEI LI, JUN SHEN, J. EMILIANO DEUSTUA, PIOTR PIECUCH
     UNIVERSITY OF MINNESOTA:
          ANDREW SAND, PRACHI SHARMA, YINAN SHU
     UNIVERSITY OF SILESIA: MONIKA MUSIAL, STANISLAW KUCHARSKI
     FACULTES UNIVERSITAIRES NOTRE-DAME DE LA PAIX:
          OLIVIER QUINET, BENOIT CHAMPAGNE
     UNIVERSITY OF CALIFORNIA - SANTA BARBARA: BERNARD KIRTMAN
     INSTITUTE FOR MOLECULAR SCIENCE:
          KAZUYA ISHIMURA, MICHIO KATOUDA, AND SHIGERU NAGASE
     UNIVERSITY OF NOTRE DAME: ANNA POMOGAEVA, DAN CHIPMAN
     KYUSHU UNIVERSITY:
          HARUYUKI NAKANO,
          FENG LONG GU, JACEK KORCHOWIEC, MARCIN MAKOWSKI, AND YURIKO AOKI,
          HIROTOSHI MORI AND EISAKU MIYOSHI
     PENNSYLVANIA STATE UNIVERSITY:
          TZVETELIN IORDANOV, CHET SWALINA, JONATHAN SKONE,
          SHARON HAMMES-SCHIFFER
     WASEDA UNIVERSITY:
          MASATO KOBAYASHI, TOMOKO AKAMA, TSUGUKI TOUMA,
          TAKESHI YOSHIKAWA, YASUHIRO IKABATA, JUNJI SEINO,
          YUYA NAKAJIMA, HIROMI NAKAI
     NANJING UNIVERSITY: SHUHUA LI
     UNIVERSITY OF NEBRASKA:
          PEIFENG SU, DEJUN SI, NANDUN THELLAMUREGE, YALI WANG, HUI LI
     UNIVERSITY OF ZURICH: ROBERTO PEVERATI, KIM BALDRIDGE
     N. COPERNICUS UNIVERSITY AND JACKSON STATE UNIVERSITY:
          MARIA BARYSZ
     UNIVERSITY OF COPENHAGEN: Jimmy Kromann, CASPER STEINMANN
     TOKYO INSTITUTE OF TECHNOLOGY: HIROYA NAKATA
     NAGOYA UNIVERSITY: YOSHIO NISHIMOTO, STEPHAN IRLE
     MOSCOW STATE UNIVERSITY: VLADIMIR MIRONOV
     A.N.NESMEYANOV INSTITUTE OF ORGANOELEMENT COMPOUNDS OF RUSSIAN ACADEMY OF SCIENCES:
          IGOR S. GERASIMOV
     JOHANNES KEPLER UNIVERSITY LINZ:
          CHRISTIAN FRIEDL


 PARALLEL VERSION RUNNING ON        8 PROCESSORS IN        1 NODES.

 EXECUTION OF GAMESS BEGUN Wed Apr 24 12:16:25 2024

            ECHO OF THE FIRST FEW INPUT CARDS -
 INPUT CARD> $BASIS GBASIS=N31 NGAUSS=6 NPFUNC=1 DIFFSP=.t. $END                            
 INPUT CARD> $CONTRL SCFTYP=RHF RUNTYP=RAMAN ICHARG=0 MULT=1 MAXIT=200 $END                 
 INPUT CARD> $FORCE METHOD=SEMINUM $END                                                     
 INPUT CARD> $SCF DIRSCF=.t. DAMP=.t. $END                                                  
 INPUT CARD> $SYSTEM MWORDS=100 $END                                                        
 INPUT CARD> $DATA                                                                          
 INPUT CARD> Title                                                                          
 INPUT CARD> C1                                                                             
 INPUT CARD> O           8.0  -0.1582858517  -0.1101386255   0.0000000000                   
 INPUT CARD> H           1.0  -0.7839027856   0.5938299012  -0.0000000000                   
 INPUT CARD> H           1.0  -0.6108554327  -0.9360584918   0.0000000000                   
 INPUT CARD> $END                                                                           
 INPUT CARD> $GRAD                                                                          
 INPUT CARD>E=      -76.0212717583  GMAX=   0.0000047  GRMS=   0.0000024                    
 INPUT CARD>O            8.    4.6600295009E-06   -2.4179726008E-06    0.0000000000E+00     
 INPUT CARD>H            1.   -3.1287826472E-06   -9.2785368389E-07    0.0000000000E+00     
 INPUT CARD>H            1.   -1.5312468739E-06    3.3458262744E-06    0.0000000000E+00     
 INPUT CARD> $END                                                                           
 INPUT CARD> $HESS                                                                          
 INPUT CARD>ENERGY IS      -76.0212717583 E(NUC) IS        9.3338683079                     
 INPUT CARD> 1  1 5.03562279E-01-4.17985641E-02-2.32342506E-08-3.13510517E-01 2.58911468E-01
 INPUT CARD> 1  2-1.04494177E-07-1.90074043E-01-2.17108463E-01 1.17856533E-07               
 INPUT CARD> 2  1-4.17985641E-02 8.68489227E-01-2.54332527E-09 3.21643678E-01-3.72496354E-01
 INPUT CARD> 2  2-1.16088972E-08-2.79848069E-01-4.95988555E-01 8.55145954E-09               
 INPUT CARD> 3  1-2.32342506E-08-2.54332527E-09 1.47657848E-05 1.37238360E-08-1.73007164E-08
 INPUT CARD> 3  2-1.40827388E-05 9.51037027E-09 1.98442873E-08-1.19424236E-05               
 INPUT CARD> 4  1-3.13510517E-01 3.21643678E-01 1.37238360E-08 2.97714407E-01-2.94715052E-01
 INPUT CARD> 4  2 6.15700713E-08 1.58061861E-02-2.69284931E-02-6.84901219E-08               
 INPUT CARD> 5  1 2.58911468E-01-3.72496354E-01-1.73007164E-08-2.94715052E-01 3.95413736E-01
 INPUT CARD> 5  2-7.37981620E-08 3.57975335E-02-2.29182051E-02 8.56289289E-08               
 INPUT CARD> 6  1-1.04494177E-07-1.16088972E-08-1.40827388E-05 6.15700713E-08-7.37981620E-08
 INPUT CARD> 6  2 7.15574704E-06 4.29243668E-08 8.54070148E-08 1.24785331E-05               
 INPUT CARD> 7  1-1.90074043E-01-2.79848069E-01 9.51037027E-09 1.58061861E-02 3.57975335E-02
 INPUT CARD> 7  2 4.29243668E-08 1.74280061E-01 2.44045961E-01-4.93660571E-08               
 INPUT CARD> 8  1-2.17108463E-01-4.95988555E-01 1.98442873E-08-2.69284931E-02-2.29182051E-02
 INPUT CARD> 8  2 8.54070148E-08 2.44045961E-01 5.18903264E-01-9.41805578E-08               
 INPUT CARD> 9  1 1.17856533E-07 8.55145954E-09-1.19424236E-05-6.84901219E-08 8.56289289E-08
 INPUT CARD> 9  2 1.24785331E-05-4.93660571E-08-9.41805578E-08 5.17172553E-06               
 INPUT CARD> $END                                                                           
 INPUT CARD>                                                                                
 INPUT CARD>                                                                                
 INPUT CARD>                                                                                
 INPUT CARD>                                                                                
  100000000 WORDS OF MEMORY AVAILABLE

     BASIS OPTIONS
     -------------
     GBASIS=N31          IGAUSS=       6      POLAR=POPN31  
     NDFUNC=       0     NFFUNC=       0     DIFFSP=       T
     NPFUNC=       1      DIFFS=       F     BASNAM=        


     RUN TITLE
     ---------
  Title                                                                          

 THE POINT GROUP OF THE MOLECULE IS C1      
 THE ORDER OF THE PRINCIPAL AXIS IS     0

 ATOM      ATOMIC                      COORDINATES (BOHR)
           CHARGE         X                   Y                   Z
 O           8.0    -0.2991168874       -0.2081318229        0.0000000000
 H           1.0    -1.4813614658        1.1221757966        0.0000000000
 H           1.0    -1.1543493859       -1.7688940580        0.0000000000

          INTERNUCLEAR DISTANCES (ANGS.)
          ------------------------------

                1 O          2 H          3 H     

   1 O       0.0000000    0.9417899 *  0.9417871 *
   2 H       0.9417899 *  0.0000000    1.5396441 *
   3 H       0.9417871 *  1.5396441 *  0.0000000  

  * ... LESS THAN  3.000


     ATOMIC BASIS SET
     ----------------
 THE CONTRACTED PRIMITIVE FUNCTIONS HAVE BEEN UNNORMALIZED
 THE CONTRACTED BASIS FUNCTIONS ARE NOW NORMALIZED TO UNITY

  SHELL TYPE  PRIMITIVE        EXPONENT          CONTRACTION COEFFICIENT(S)

 O         

      1   S       1          5484.6716600    0.001831074430
      1   S       2           825.2349460    0.013950172200
      1   S       3           188.0469580    0.068445078098
      1   S       4            52.9645000    0.232714335992
      1   S       5            16.8975704    0.470192897984
      1   S       6             5.7996353    0.358520852987

      2   L       7            15.5396162   -0.110777549525    0.070874268231
      2   L       8             3.5999336   -0.148026262701    0.339752839147
      2   L       9             1.0137618    1.130767015354    0.727158577316

      3   L      10             0.2700058    1.000000000000    1.000000000000

      4   L      11             0.0845000    1.000000000000    1.000000000000

 H         

      5   S      12            18.7311370    0.033494604338
      5   S      13             2.8253944    0.234726953484
      5   S      14             0.6401217    0.813757326146

      6   S      15             0.1612778    1.000000000000

      7   P      16             1.1000000    1.000000000000

 H         

      8   S      17            18.7311370    0.033494604338
      8   S      18             2.8253944    0.234726953484
      8   S      19             0.6401217    0.813757326146

      9   S      20             0.1612778    1.000000000000

     10   P      21             1.1000000    1.000000000000

 TOTAL NUMBER OF BASIS SET SHELLS             =   10
 NUMBER OF CARTESIAN GAUSSIAN BASIS FUNCTIONS =   23
 NUMBER OF ELECTRONS                          =   10
 CHARGE OF MOLECULE                           =    0
 SPIN MULTIPLICITY                            =    1
 NUMBER OF OCCUPIED ORBITALS (ALPHA)          =    5
 NUMBER OF OCCUPIED ORBITALS (BETA )          =    5
 TOTAL NUMBER OF ATOMS                        =    3
 THE NUCLEAR REPULSION ENERGY IS        9.3338683081

     $CONTRL OPTIONS
     ---------------
 SCFTYP=RHF          RUNTYP=RAMAN        EXETYP=RUN     
 MPLEVL=       0     CITYP =NONE         CCTYP =NONE         VBTYP =NONE    
 DFTTYP=NONE         TDDFT =NONE    
 MULT  =       1     ICHARG=       0     NZVAR =       0     COORD =UNIQUE  
 PP    =NONE         RELWFN=NONE         LOCAL =NONE         NUMGRD=       F
 ISPHER=      -1     NOSYM =       0     MAXIT =     200     UNITS =ANGS    
 PLTORB=       F     MOLPLT=       F     AIMPAC=       F     FRIEND=        
 NPRINT=       7     IREST =       0     GEOM  =INPUT   
 NORMF =       0     NORMP =       0     ITOL  =      20     ICUT  =       9
 INTTYP=BEST         GRDTYP=BEST         QMTTOL= 1.0E-06

     $SYSTEM OPTIONS
     ---------------
  REPLICATED MEMORY=   100000000 WORDS (ON EVERY NODE).
 DISTRIBUTED MEMDDI=           0 MILLION WORDS IN AGGREGATE,
 MEMDDI DISTRIBUTED OVER   8 PROCESSORS IS           0 WORDS/PROCESSOR.
 TOTAL MEMORY REQUESTED ON EACH PROCESSOR=   100000000 WORDS.
 TIMLIM=      525600.00 MINUTES, OR     365.0 DAYS.
 PARALL= T  BALTYP=  DLB     KDIAG=    0  COREFL= F
 MXSEQ2=     300 MXSEQ3=     150  mem10=         0

          ----------------
          PROPERTIES INPUT
          ----------------

     MOMENTS            FIELD           POTENTIAL          DENSITY
 IEMOM =       1   IEFLD =       0   IEPOT =       0   IEDEN =       0
 WHERE =COMASS     WHERE =NUCLEI     WHERE =NUCLEI     WHERE =NUCLEI  
 OUTPUT=BOTH       OUTPUT=BOTH       OUTPUT=BOTH       OUTPUT=BOTH    
 IEMINT=       0   IEFINT=       0                     IEDINT=       0
                                                       MORB  =       0
          EXTRAPOLATION IN EFFECT
          DAMPING IN EFFECT
          SOSCF IN EFFECT
 ORBITAL PRINTING OPTION: NPREO=     1    23     2     1

     -------------------------------
     INTEGRAL TRANSFORMATION OPTIONS
     -------------------------------
     NWORD  =            0
     CUTOFF = 1.0E-09     MPTRAN =       0
     DIRTRF =       T     AOINTS =DUP     

          ----------------------
          INTEGRAL INPUT OPTIONS
          ----------------------
 NOPK  =       1 NORDER=       0 SCHWRZ=       T

     ------------------------------------------
     THE POINT GROUP IS C1 , NAXIS= 0, ORDER= 1
     ------------------------------------------

     DIMENSIONS OF THE SYMMETRY SUBSPACES ARE
 A   =   23

 ..... DONE SETTING UP THE RUN .....
 CPU     0: STEP CPU TIME=     0.04 TOTAL CPU TIME=          0.0 (      0.0 MIN)
 TOTAL WALL CLOCK TIME=          0.1 SECONDS, CPU UTILIZATION IS    44.44%

 $HESS GROUP READ FROM CARDS
 ENERGY IS      -76.0212717583 E(NUC) IS        9.3338683079                     

          -------------------------------
          CARTESIAN FORCE CONSTANT MATRIX
          -------------------------------

                                   1                          2
                               O                          H         
                          X        Y        Z        X        Y        Z
  1   O            X 0.503562-0.041799-0.000000-0.313511 0.258911-0.000000
                   Y-0.041799 0.868489-0.000000 0.321644-0.372496-0.000000
                   Z-0.000000-0.000000 0.000015 0.000000-0.000000-0.000014
  2   H            X-0.313511 0.321644 0.000000 0.297714-0.294715 0.000000
                   Y 0.258911-0.372496-0.000000-0.294715 0.395414-0.000000
                   Z-0.000000-0.000000-0.000014 0.000000-0.000000 0.000007
  3   H            X-0.190074-0.279848 0.000000 0.015806 0.035798 0.000000
                   Y-0.217108-0.495989 0.000000-0.026928-0.022918 0.000000
                   Z 0.000000 0.000000-0.000012-0.000000 0.000000 0.000012

                                   3
                               H         
                          X        Y        Z
  3   H            X 0.174280 0.244046-0.000000
                   Y 0.244046 0.518903-0.000000
                   Z-0.000000-0.000000 0.000005

     ---------------------------------------------------------
     NUMERICAL COMPUTATION OF POLARIZABILITY DERIVATIVE MATRIX
     ---------------------------------------------------------

     APPLIED ELECTRIC FIELD STRENGTH=  0.0020 A.U.

 OBTAINING GRADIENT IN THE ABSENCE OF APPLIED FIELDS

          ********************
          1 ELECTRON INTEGRALS
          ********************
 ...... END OF ONE-ELECTRON INTEGRALS ......
 CPU     0: STEP CPU TIME=     0.00 TOTAL CPU TIME=          0.0 (      0.0 MIN)
 TOTAL WALL CLOCK TIME=          0.1 SECONDS, CPU UTILIZATION IS    40.00%

          -------------
          GUESS OPTIONS
          -------------
          GUESS =HUCKEL            NORB  =       0          NORDER=       0
          MIX   =       F          PRTMO =       F          PUNMO =       F
          TOLZ  = 1.0E-08          TOLE  = 1.0E-05
          SYMDEN=       F          PURIFY=       F

 INITIAL GUESS ORBITALS GENERATED BY HUCKEL   ROUTINE.
 HUCKEL GUESS REQUIRES      6316 WORDS.

 SYMMETRIES FOR INITIAL GUESS ORBITALS FOLLOW.   BOTH SET(S).
     5 ORBITALS ARE OCCUPIED (    1 CORE ORBITALS).
     2=A        3=A        4=A        5=A        6=A        7=A        8=A   
     9=A       10=A       11=A       12=A       13=A       14=A       15=A   
 ...... END OF INITIAL ORBITAL SELECTION ......
 CPU     0: STEP CPU TIME=     0.02 TOTAL CPU TIME=          0.1 (      0.0 MIN)
 TOTAL WALL CLOCK TIME=          0.1 SECONDS, CPU UTILIZATION IS    54.55%

                    ----------------------
                    AO INTEGRAL TECHNOLOGY
                    ----------------------
     S,P,L SHELL ROTATED AXIS INTEGRALS, REPROGRAMMED BY
        KAZUYA ISHIMURA (IMS) AND JOSE SIERRA (SYNSTAR).
     S,P,D,L SHELL ROTATED AXIS INTEGRALS PROGRAMMED BY
        KAZUYA ISHIMURA (INSTITUTE FOR MOLECULAR SCIENCE).
     S,P,D,F,G SHELL TO TOTAL QUARTET ANGULAR MOMENTUM SUM 5,
        ERIC PROGRAM BY GRAHAM FLETCHER (ELORET AND NASA ADVANCED
        SUPERCOMPUTING DIVISION, AMES RESEARCH CENTER).
     S,P,D,F,G,L SHELL GENERAL RYS QUADRATURE PROGRAMMED BY
        MICHEL DUPUIS (PACIFIC NORTHWEST NATIONAL LABORATORY).

          --------------------
          2 ELECTRON INTEGRALS
          --------------------

 DIRECT SCF METHOD SKIPS INTEGRAL STORAGE ON DISK.
 DIRECT TRANSFORMATION SKIPS AO INTEGRAL STORAGE ON DISK.
  ...... END OF TWO-ELECTRON INTEGRALS .....
 CPU     0: STEP CPU TIME=     0.00 TOTAL CPU TIME=          0.1 (      0.0 MIN)
 TOTAL WALL CLOCK TIME=          0.1 SECONDS, CPU UTILIZATION IS    50.00%

          --------------------------
                 RHF SCF CALCULATION
          --------------------------

     NUCLEAR ENERGY =         9.3338683081
     MAXIT =  200     NPUNCH=    2
     EXTRAP=T  DAMP=T  SHIFT=F  RSTRCT=F  DIIS=F  DEM=F  SOSCF=T
     DENSITY MATRIX CONV=  2.00E-06
     SOSCF WILL OPTIMIZE      90 ORBITAL ROTATIONS, SOGTOL=   0.250
     MEMORY REQUIRED FOR RHF ITERS=     48851 WORDS.

 DIRECT SCF CALCULATION, SCHWRZ=T   FDIFF=T,  DIRTHR=  0.00E+00 NITDIR=10
 SCHWARZ INEQUALITY OVERHEAD:       276 INTEGRALS, T=        0.00

                                                                                                                   NONZERO     BLOCKS
 ITER EX DEM     TOTAL ENERGY        E CHANGE  DENSITY CHANGE     ORB. GRAD      VIR. SHIFT       DAMPING        INTEGRALS    SKIPPED
   1  0  0      -75.7617415962   -75.7617415962   0.181375315   0.000000000     0.000000000     1.000000000          19819          0
          ---------------START SECOND ORDER SCF---------------
   2  1  0      -76.0045307853    -0.2427891891   0.058562321   0.041221535     0.000000000     0.000000000          19819          0
   3  2  0      -76.0193388968    -0.0148081115   0.034614250   0.013357284     0.000000000     0.000000000          19819          0
   4  3  0      -76.0211015185    -0.0017626216   0.007444244   0.005814179     0.000000000     0.000000000          19819          0
   5  4  0      -76.0212595058    -0.0001579873   0.001662448   0.001291180     0.000000000     0.000000000          19819          0
   6  5  0      -76.0212708484    -0.0000113426   0.000861635   0.000353512     0.000000000     0.000000000          19819          0
   7  6  0      -76.0212717483    -0.0000008999   0.000096874   0.000038062     0.000000000     0.000000000          19819          0
   8  7  0      -76.0212717576    -0.0000000093   0.000040809   0.000011001     0.000000000     0.000000000          19819          0
   9  8  0      -76.0212717583    -0.0000000007   0.000008783   0.000002027     0.000000000     0.000000000          19819          0
  10  9  0      -76.0212717583    -0.0000000001   0.000001517   0.000000716     0.000000000     0.000000000          19819          0
  11 10  0      -76.0212717583    -0.0000000000   0.000000862   0.000000148     0.000000000     0.000000000          19819          0

          -----------------
          DENSITY CONVERGED
          -----------------
     TIME TO FORM FOCK OPERATORS=       0.0 SECONDS (       0.0 SEC/ITER)
     FOCK TIME ON FIRST ITERATION=       0.0, LAST ITERATION=       0.0
     TIME TO SOLVE SCF EQUATIONS=       0.0 SECONDS (       0.0 SEC/ITER)

 FINAL RHF ENERGY IS      -76.0212717583 AFTER  11 ITERATIONS

          ------------
          EIGENVECTORS
          ------------

                      1          2          3          4          5
                  -20.5788    -1.3687    -0.7418    -0.5692    -0.5103
                     A          A          A          A          A   
    1  O  1  S    0.995719  -0.211806  -0.000000  -0.069715   0.000000
    2  O  1  S    0.022348   0.470908   0.000001   0.170649   0.000000
    3  O  1  X   -0.002181  -0.093773  -0.056188   0.558843   0.000000
    4  O  1  Y   -0.000247  -0.010607   0.496764   0.063210   0.000000
    5  O  1  Z    0.000000   0.000000   0.000000   0.000000   0.638185
    6  O  1  S   -0.006775   0.431083   0.000002   0.283676   0.000000
    7  O  1  X    0.000730  -0.035810  -0.026373   0.355619   0.000000
    8  O  1  Y    0.000083  -0.004050   0.233167   0.040224   0.000000
    9  O  1  Z    0.000000   0.000000   0.000000   0.000000   0.447083
   10  O  1  S    0.000968   0.020918   0.000000   0.047152   0.000000
   11  O  1  X    0.000320  -0.010250   0.000383   0.057429   0.000000
   12  O  1  Y    0.000036  -0.001159  -0.003381   0.006496   0.000000
   13  O  1  Z    0.000000   0.000000   0.000000   0.000000   0.088504
   14  H  2  S   -0.000329   0.152588   0.266633  -0.141920   0.000000
   15  H  2  S    0.000982  -0.005492   0.139409  -0.086545   0.000000
   16  H  2  X   -0.000724   0.016104   0.027653   0.008415   0.000000
   17  H  2  Y    0.000845  -0.023031  -0.022279   0.023236   0.000000
   18  H  2  Z    0.000000   0.000000   0.000000   0.000000   0.026682
   19  H  3  S   -0.000329   0.152589  -0.266634  -0.141919   0.000000
   20  H  3  S    0.000982  -0.005493  -0.139409  -0.086544   0.000000
   21  H  3  X   -0.000517   0.010553  -0.021978   0.013393   0.000000
   22  H  3  Y   -0.000986   0.026046  -0.027893  -0.020769   0.000000
   23  H  3  Z    0.000000   0.000000   0.000000   0.000000   0.026682

                      6          7          8          9         10
                    0.1463     0.2184     0.2518     0.2579     0.3653
                     A          A          A          A          A   
    1  O  1  S    0.063879   0.000000   0.000000   0.052789   0.000002
    2  O  1  S   -0.086654  -0.000000   0.000000  -0.065217  -0.000002
    3  O  1  X    0.157692   0.020314   0.000000  -0.117827   0.030827
    4  O  1  Y    0.017836  -0.179588   0.000000  -0.013328  -0.272465
    5  O  1  Z    0.000000   0.000000  -0.209449   0.000000   0.000000
    6  O  1  S   -0.689930  -0.000004   0.000000  -0.699926  -0.000034
    7  O  1  X    0.171451   0.045725   0.000000  -0.334843   0.091613
    8  O  1  Y    0.019391  -0.404242   0.000000  -0.037874  -0.809703
    9  O  1  Z    0.000000   0.000000  -0.521654   0.000000   0.000000
   10  O  1  S    1.866915  -0.000002   0.000000   0.178550  -0.000124
   11  O  1  X   -0.768391  -0.163226   0.000000   1.270320   0.142743
   12  O  1  Y   -0.086915   1.443087   0.000000   0.143683  -1.261671
   13  O  1  Z    0.000000   0.000000   1.234852   0.000000   0.000000
   14  H  2  S    0.045231   0.003175   0.000000   0.029724   0.101115
   15  H  2  S   -0.441123  -0.354653   0.000000   0.472196   2.160995
   16  H  2  X   -0.005645  -0.003771   0.000000   0.006691  -0.001107
   17  H  2  Y    0.011207   0.010329   0.000000   0.002109  -0.014573
   18  H  2  Z    0.000000   0.000000   0.005489   0.000000   0.000000
   19  H  3  S    0.045230  -0.003174   0.000000   0.029723  -0.101105
   20  H  3  S   -0.441131   0.354660   0.000000   0.472191  -2.160804
   21  H  3  X   -0.002999   0.001368   0.000000   0.006993   0.004336
   22  H  3  Y   -0.012185   0.010910   0.000000  -0.000561  -0.013957
   23  H  3  Z    0.000000   0.000000   0.005489   0.000000   0.000000

                     11         12         13         14         15
                    0.3816     1.2996     1.3232     1.3518     1.4041
                     A          A          A          A          A   
    1  O  1  S   -0.055822  -0.000002  -0.029899   0.000001   0.000000
    2  O  1  S    0.055523   0.000036   0.575081  -0.000018   0.000000
    3  O  1  X   -0.215672  -0.095675  -0.781561   0.034308   0.000000
    4  O  1  Y   -0.024405   0.845470  -0.088464  -0.303085   0.000000
    5  O  1  Z    0.000000   0.000000   0.000000   0.000000  -0.991614
    6  O  1  S    1.079680  -0.000082  -1.390226   0.000039   0.000000
    7  O  1  X   -0.702939   0.128481   1.240480  -0.156153   0.000000
    8  O  1  Y   -0.079544  -1.135308   0.140426   1.380220   0.000000
    9  O  1  Z    0.000000   0.000000   0.000000   0.000000   1.426277
   10  O  1  S    3.173392  -0.000097  -1.441541   0.000050   0.000000
   11  O  1  X   -0.920054   0.042481   0.192549   0.116676   0.000000
   12  O  1  Y   -0.104117  -0.375391   0.021769  -1.031597   0.000000
   13  O  1  Z    0.000000   0.000000   0.000000   0.000000  -0.647073
   14  H  2  S   -0.123942  -0.519696  -0.407810  -0.948620   0.000000
   15  H  2  S   -2.552533   1.474880   1.672844   0.947181   0.000000
   16  H  2  X   -0.017130   0.134550   0.113062   0.001178   0.000000
   17  H  2  Y    0.009040  -0.092432  -0.154107   0.127130   0.000000
   18  H  2  Z    0.000000   0.000000   0.000000   0.000000   0.006247
   19  H  3  S   -0.123950   0.519630  -0.407811   0.948656   0.000000
   20  H  3  S   -2.552714  -1.474658   1.672967  -0.947293   0.000000
   21  H  3  X   -0.014678  -0.110498   0.075795  -0.029549   0.000000
   22  H  3  Y   -0.012639  -0.120129   0.175490   0.123643   0.000000
   23  H  3  Z    0.000000   0.000000   0.000000   0.000000   0.006246

                     16         17         18         19         20
                    1.4281     1.6993     2.1921     2.3928     2.4979
                     A          A          A          A          A   
    1  O  1  S   -0.057992   0.045232   0.000000   0.001653   0.000000
    2  O  1  S    0.251093  -1.547277   0.000000   0.420832   0.000000
    3  O  1  X    0.435968  -0.306699   0.000000  -0.078062   0.000000
    4  O  1  Y    0.049302  -0.034693   0.000000  -0.008829   0.000000
    5  O  1  Z    0.000000   0.000000   0.000002   0.000000  -0.006183
    6  O  1  S   -0.097382   2.618702   0.000000  -0.808942   0.000000
    7  O  1  X   -1.087671   0.065585   0.000000   0.811961   0.000000
    8  O  1  Y   -0.123012   0.007420   0.000000   0.091842   0.000000
    9  O  1  Z    0.000000   0.000000  -0.000001   0.000000  -0.545350
   10  O  1  S   -1.140518  -0.876093   0.000000   0.004649   0.000000
   11  O  1  X    0.903936  -0.119043   0.000000  -0.103470   0.000000
   12  O  1  Y    0.102244  -0.013468   0.000000  -0.011702   0.000000
   13  O  1  Z    0.000000   0.000000   0.000000   0.000000   0.113493
   14  H  2  S   -0.926995  -0.465615   0.000000   0.389145   0.000000
   15  H  2  S    1.178767  -0.019652   0.000000   0.101843   0.000000
   16  H  2  X   -0.089271  -0.166543   0.000000  -0.592416   0.000000
   17  H  2  Y   -0.074278   0.006492   0.000000  -0.425279   0.000000
   18  H  2  Z    0.000000   0.000000   0.710492   0.000000   0.770291
   19  H  3  S   -0.926998  -0.465613   0.000000   0.389145   0.000000
   20  H  3  S    1.178787  -0.019660   0.000000   0.101848   0.000000
   21  H  3  X   -0.103604  -0.160886   0.000000  -0.672438   0.000000
   22  H  3  Y    0.052466  -0.043527   0.000000   0.282212   0.000000
   23  H  3  Z    0.000000   0.000000  -0.710491   0.000000   0.770292

                     21         22         23
                    2.5391     3.1489     3.3237
                     A          A          A   
    1  O  1  S    0.000000  -0.000002  -0.082454
    2  O  1  S   -0.000001   0.000006   0.550153
    3  O  1  X    0.009730  -0.086549  -0.546248
    4  O  1  Y   -0.086029   0.765087  -0.061806
    5  O  1  Z    0.000000   0.000000   0.000000
    6  O  1  S   -0.000001   0.000022   0.919192
    7  O  1  X   -0.075405  -0.020891  -0.401498
    8  O  1  Y    0.666652   0.184599  -0.045416
    9  O  1  Z    0.000000   0.000000   0.000000
   10  O  1  S   -0.000002   0.000010   0.487110
   11  O  1  X    0.015413  -0.027881  -0.136060
   12  O  1  Y   -0.136263   0.246473  -0.015396
   13  O  1  Z    0.000000   0.000000   0.000000
   14  H  2  S   -0.295031  -0.132464  -0.367272
   15  H  2  S    0.031309  -0.608108  -0.654798
   16  H  2  X   -0.507063  -0.671311  -0.502517
   17  H  2  Y   -0.546902   0.574169   0.811625
   18  H  2  Z    0.000000   0.000000   0.000000
   19  H  3  S    0.295031   0.132451  -0.367281
   20  H  3  S   -0.031306   0.608079  -0.654825
   21  H  3  X    0.616412   0.526093  -0.308556
   22  H  3  Y   -0.419825   0.709571  -0.903397
   23  H  3  Z    0.000000   0.000000   0.000000
 ...... END OF RHF CALCULATION ......
 CPU     0: STEP CPU TIME=     0.07 TOTAL CPU TIME=          0.1 (      0.0 MIN)
 TOTAL WALL CLOCK TIME=          0.2 SECONDS, CPU UTILIZATION IS    61.90%

     ----------------------------------------------------------------
     PROPERTY VALUES FOR THE RHF   SELF-CONSISTENT FIELD WAVEFUNCTION
     ----------------------------------------------------------------

          -----------------
          ENERGY COMPONENTS
          -----------------

         WAVEFUNCTION NORMALIZATION =       1.0000000000

                ONE ELECTRON ENERGY =    -123.1727810418
                TWO ELECTRON ENERGY =      37.8176409754
           NUCLEAR REPULSION ENERGY =       9.3338683081
                                      ------------------
                       TOTAL ENERGY =     -76.0212717583

 ELECTRON-ELECTRON POTENTIAL ENERGY =      37.8176409754
  NUCLEUS-ELECTRON POTENTIAL ENERGY =    -199.0753825497
   NUCLEUS-NUCLEUS POTENTIAL ENERGY =       9.3338683081
                                      ------------------
             TOTAL POTENTIAL ENERGY =    -151.9238732662
               TOTAL KINETIC ENERGY =      75.9026015079
                 VIRIAL RATIO (V/T) =       2.0015634543

  ...... PI ENERGY ANALYSIS ......

 ENERGY ANALYSIS:
            FOCK ENERGY=    -47.5374995136
          BARE H ENERGY=   -123.1727810418
     ELECTRONIC ENERGY =    -85.3551402777
         KINETIC ENERGY=     75.9026015079
          N-N REPULSION=      9.3338683081
           TOTAL ENERGY=    -76.0212719696
        SIGMA PART(1+2)=    -77.8266419441
               (K,V1,2)=     71.4468066649   -180.5831014736     31.3096528646
           PI PART(1+2)=     -7.5284983336
               (K,V1,2)=      4.4557948430    -18.4922810761      6.5079878995
  SIGMA SKELETON, ERROR=    -68.4927736360     -0.0000000000
             MIXED PART= 0.00000E+00 0.00000E+00 0.00000E+00 0.00000E+00
 ...... END OF PI ENERGY ANALYSIS ......

          ---------------------------------------
          MULLIKEN AND LOWDIN POPULATION ANALYSES
          ---------------------------------------

     ATOMIC MULLIKEN POPULATION IN EACH MOLECULAR ORBITAL

                      1          2          3          4          5

                  2.000000   2.000000   2.000000   2.000000   2.000000

    1             2.000062   1.673521   1.201633   1.783127   1.971781
    2            -0.000031   0.163238   0.399184   0.108437   0.014109
    3            -0.000031   0.163240   0.399184   0.108436   0.014109

               ----- POPULATIONS IN EACH AO -----
                             MULLIKEN      LOWDIN
              1  O  1  S      1.99751     1.99348
              2  O  1  S      0.89783     0.79270
              3  O  1  X      0.96041     0.89691
              4  O  1  Y      0.80545     0.71353
              5  O  1  Z      1.13012     1.08109
              6  O  1  S      0.89150     0.62867
              7  O  1  X      0.60825     0.62445
              8  O  1  Y      0.40425     0.47761
              9  O  1  Z      0.75256     0.70784
             10  O  1  S      0.03608     0.11346
             11  O  1  X      0.05967     0.12956
             12  O  1  Y     -0.00261     0.08284
             13  O  1  Z      0.08910     0.14443
             14  H  2  S      0.52046     0.47660
             15  H  2  S      0.10842     0.19847
             16  H  2  X      0.01947     0.04720
             17  H  2  Y      0.02248     0.05113
             18  H  2  Z      0.01411     0.03332
             19  H  3  S      0.52046     0.47660
             20  H  3  S      0.10842     0.19847
             21  H  3  X      0.01484     0.03484
             22  H  3  Y      0.02711     0.06349
             23  H  3  Z      0.01411     0.03332

          ----- MULLIKEN ATOMIC OVERLAP POPULATIONS -----
          (OFF-DIAGONAL ELEMENTS NEED TO BE MULTIPLIED BY 2)

             1           2           3

    1    8.0202023
    2    0.3049607   0.4177085
    3    0.3049609  -0.0377313   0.4177088

          TOTAL MULLIKEN AND LOWDIN ATOMIC POPULATIONS
       ATOM         MULL.POP.    CHARGE          LOW.POP.     CHARGE
    1 O             8.630124   -0.630124         8.386561   -0.386561
    2 H             0.684938    0.315062         0.806718    0.193282
    3 H             0.684938    0.315062         0.806721    0.193279

          -------------------------------
          BOND ORDER AND VALENCE ANALYSIS     BOND ORDER THRESHOLD=0.050
          -------------------------------

                   BOND                       BOND                       BOND
  ATOM PAIR DIST  ORDER      ATOM PAIR DIST  ORDER      ATOM PAIR DIST  ORDER
    1   2  0.942  0.886        1   3  0.942  0.886

                       TOTAL       BONDED        FREE
      ATOM            VALENCE     VALENCE     VALENCE
    1 O                 1.772       1.772       0.000
    2 H                 0.891       0.891      -0.000
    3 H                 0.891       0.891      -0.000

          ---------------------
          ELECTROSTATIC MOMENTS
          ---------------------

 POINT   1           X           Y           Z (BOHR)    CHARGE
                -0.413129   -0.221027    0.000000       -0.00 (A.U.)
         DX          DY          DZ         /D/  (DEBYE)
    -2.426918   -0.274506    0.000000    2.442393
 ...... END OF PROPERTY EVALUATION ......
 CPU     0: STEP CPU TIME=     0.03 TOTAL CPU TIME=          0.2 (      0.0 MIN)
 TOTAL WALL CLOCK TIME=          0.2 SECONDS, CPU UTILIZATION IS    66.67%

 USING INPUT $GRAD AS THE FIELD FREE GRADIENT VECTOR.

 UNITS ARE HARTREE/BOHR    E'X               E'Y               E'Z 
    1 O                0.000004660      -0.000002418       0.000000000
    2 H               -0.000003129      -0.000000928       0.000000000
    3 H               -0.000001531       0.000003346       0.000000000
 ... DONE WITH GRADIENT ...
 CPU     0: STEP CPU TIME=     0.00 TOTAL CPU TIME=          0.2 (      0.0 MIN)
 TOTAL WALL CLOCK TIME=          0.2 SECONDS, CPU UTILIZATION IS    64.00%

 OBTAINING GRADIENT FOR X FIELD AT STRENGTH  0.004


          --------------------------
                 RHF SCF CALCULATION
          --------------------------
     DENSITY MATRIX CONV=  2.00E-06

 DIRECT SCF CALCULATION, SCHWRZ=T   FDIFF=T,  DIRTHR=  0.00E+00 NITDIR=10

                                                                                                                   NONZERO     BLOCKS
 ITER EX DEM     TOTAL ENERGY        E CHANGE  DENSITY CHANGE     ORB. GRAD      VIR. SHIFT       DAMPING        INTEGRALS    SKIPPED
          ---------------START SECOND ORDER SCF---------------
   1  0  0      -76.0174524952   -76.0174524952   0.003724580   0.002363444     0.000000000     0.000000000          19819          0
   2  1  0      -76.0174886178    -0.0000361226   0.002001487   0.000609856     0.000000000     0.000000000          19819          0
   3  2  0      -76.0174929829    -0.0000043651   0.000473100   0.000281871     0.000000000     0.000000000          19819          0
   4  3  0      -76.0174934841    -0.0000005012   0.000143971   0.000080446     0.000000000     0.000000000          19819          0
   5  4  0      -76.0174935116    -0.0000000275   0.000041804   0.000018601     0.000000000     0.000000000          19819          0
   6  5  0      -76.0174935144    -0.0000000028   0.000009744   0.000003400     0.000000000     0.000000000          19819          0
   7  6  0      -76.0174935145    -0.0000000001   0.000002177   0.000000986     0.000000000     0.000000000          19819          0
   8  7  0      -76.0174935145    -0.0000000000   0.000000331   0.000000106     0.000000000     0.000000000          19819          0

          -----------------
          DENSITY CONVERGED
          -----------------
     TIME TO FORM FOCK OPERATORS=       0.0 SECONDS (       0.0 SEC/ITER)
     FOCK TIME ON FIRST ITERATION=       0.0, LAST ITERATION=       0.0
     TIME TO SOLVE SCF EQUATIONS=       0.0 SECONDS (       0.0 SEC/ITER)

 FINAL RHF ENERGY IS      -76.0174935145 AFTER   8 ITERATIONS
 ...... END OF RHF CALCULATION ......
 CPU     0: STEP CPU TIME=     0.06 TOTAL CPU TIME=          0.2 (      0.0 MIN)
 TOTAL WALL CLOCK TIME=          0.3 SECONDS, CPU UTILIZATION IS    64.71%
 ..... END OF 1-ELECTRON GRADIENT ......
 CPU     0: STEP CPU TIME=     0.01 TOTAL CPU TIME=          0.2 (      0.0 MIN)
 TOTAL WALL CLOCK TIME=          0.4 SECONDS, CPU UTILIZATION IS    65.71%
 ...... END OF 2-ELECTRON GRADIENT ......
 CPU     0: STEP CPU TIME=     0.01 TOTAL CPU TIME=          0.2 (      0.0 MIN)
 TOTAL WALL CLOCK TIME=          0.4 SECONDS, CPU UTILIZATION IS    66.67%
 ... DONE WITH GRADIENT ...
 CPU     0: STEP CPU TIME=     0.00 TOTAL CPU TIME=          0.2 (      0.0 MIN)
 TOTAL WALL CLOCK TIME=          0.4 SECONDS, CPU UTILIZATION IS    66.67%

 OBTAINING GRADIENT FOR X FIELD AT STRENGTH -0.004


          --------------------------
                 RHF SCF CALCULATION
          --------------------------
     DENSITY MATRIX CONV=  2.00E-06

 DIRECT SCF CALCULATION, SCHWRZ=T   FDIFF=T,  DIRTHR=  0.00E+00 NITDIR=10

                                                                                                                   NONZERO     BLOCKS
 ITER EX DEM     TOTAL ENERGY        E CHANGE  DENSITY CHANGE     ORB. GRAD      VIR. SHIFT       DAMPING        INTEGRALS    SKIPPED
          ---------------START SECOND ORDER SCF---------------
   1  0  0      -76.0250910215   -76.0250910215   0.003741037   0.002363427     0.000000000     0.000000000          19819          0
   2  1  0      -76.0251270956    -0.0000360742   0.001949520   0.000608777     0.000000000     0.000000000          19819          0
   3  2  0      -76.0251313515    -0.0000042559   0.000452390   0.000289201     0.000000000     0.000000000          19819          0
   4  3  0      -76.0251318495    -0.0000004980   0.000135705   0.000073278     0.000000000     0.000000000          19819          0
   5  4  0      -76.0251318714    -0.0000000219   0.000033850   0.000015555     0.000000000     0.000000000          19819          0
   6  5  0      -76.0251318733    -0.0000000018   0.000008018   0.000002791     0.000000000     0.000000000          19819          0
   7  6  0      -76.0251318734    -0.0000000001   0.000002093   0.000001087     0.000000000     0.000000000          19819          0
   8  7  0      -76.0251318734    -0.0000000000   0.000000350   0.000000113     0.000000000     0.000000000          19819          0

          -----------------
          DENSITY CONVERGED
          -----------------
     TIME TO FORM FOCK OPERATORS=       0.0 SECONDS (       0.0 SEC/ITER)
     FOCK TIME ON FIRST ITERATION=       0.0, LAST ITERATION=       0.0
     TIME TO SOLVE SCF EQUATIONS=       0.0 SECONDS (       0.0 SEC/ITER)

 FINAL RHF ENERGY IS      -76.0251318734 AFTER   8 ITERATIONS
 ...... END OF RHF CALCULATION ......
 CPU     0: STEP CPU TIME=     0.05 TOTAL CPU TIME=          0.3 (      0.0 MIN)
 TOTAL WALL CLOCK TIME=          0.5 SECONDS, CPU UTILIZATION IS    63.04%
 ..... END OF 1-ELECTRON GRADIENT ......
 CPU     0: STEP CPU TIME=     0.01 TOTAL CPU TIME=          0.3 (      0.0 MIN)
 TOTAL WALL CLOCK TIME=          0.5 SECONDS, CPU UTILIZATION IS    62.50%
 ...... END OF 2-ELECTRON GRADIENT ......
 CPU     0: STEP CPU TIME=     0.01 TOTAL CPU TIME=          0.3 (      0.0 MIN)
 TOTAL WALL CLOCK TIME=          0.5 SECONDS, CPU UTILIZATION IS    63.27%
 ... DONE WITH GRADIENT ...
 CPU     0: STEP CPU TIME=     0.00 TOTAL CPU TIME=          0.3 (      0.0 MIN)
 TOTAL WALL CLOCK TIME=          0.5 SECONDS, CPU UTILIZATION IS    63.27%

 OBTAINING GRADIENT FOR Y FIELD AT STRENGTH  0.004


          --------------------------
                 RHF SCF CALCULATION
          --------------------------
     DENSITY MATRIX CONV=  2.00E-06

 DIRECT SCF CALCULATION, SCHWRZ=T   FDIFF=T,  DIRTHR=  0.00E+00 NITDIR=10

                                                                                                                   NONZERO     BLOCKS
 ITER EX DEM     TOTAL ENERGY        E CHANGE  DENSITY CHANGE     ORB. GRAD      VIR. SHIFT       DAMPING        INTEGRALS    SKIPPED
          ---------------START SECOND ORDER SCF---------------
   1  0  0      -76.0208397659   -76.0208397659   0.005841558   0.002683306     0.000000000     0.000000000          19819          0
   2  1  0      -76.0208908726    -0.0000511067   0.001937859   0.000628585     0.000000000     0.000000000          19819          0
   3  2  0      -76.0208949254    -0.0000040528   0.000228927   0.000136531     0.000000000     0.000000000          19819          0
   4  3  0      -76.0208950948    -0.0000001695   0.000103143   0.000039220     0.000000000     0.000000000          19819          0
   5  4  0      -76.0208951087    -0.0000000139   0.000025545   0.000016907     0.000000000     0.000000000          19819          0
   6  5  0      -76.0208951106    -0.0000000018   0.000006282   0.000002618     0.000000000     0.000000000          19819          0
   7  6  0      -76.0208951106    -0.0000000001   0.000001614   0.000000539     0.000000000     0.000000000          19819          0
   8  7  0      -76.0208951106    -0.0000000000   0.000000425   0.000000126     0.000000000     0.000000000          19819          0

          -----------------
          DENSITY CONVERGED
          -----------------
     TIME TO FORM FOCK OPERATORS=       0.0 SECONDS (       0.0 SEC/ITER)
     FOCK TIME ON FIRST ITERATION=       0.0, LAST ITERATION=       0.0
     TIME TO SOLVE SCF EQUATIONS=       0.0 SECONDS (       0.0 SEC/ITER)

 FINAL RHF ENERGY IS      -76.0208951106 AFTER   8 ITERATIONS
 ...... END OF RHF CALCULATION ......
 CPU     0: STEP CPU TIME=     0.06 TOTAL CPU TIME=          0.4 (      0.0 MIN)
 TOTAL WALL CLOCK TIME=          0.6 SECONDS, CPU UTILIZATION IS    64.91%
 ..... END OF 1-ELECTRON GRADIENT ......
 CPU     0: STEP CPU TIME=     0.01 TOTAL CPU TIME=          0.4 (      0.0 MIN)
 TOTAL WALL CLOCK TIME=          0.6 SECONDS, CPU UTILIZATION IS    65.52%
 ...... END OF 2-ELECTRON GRADIENT ......
 CPU     0: STEP CPU TIME=     0.01 TOTAL CPU TIME=          0.4 (      0.0 MIN)
 TOTAL WALL CLOCK TIME=          0.6 SECONDS, CPU UTILIZATION IS    66.10%
 ... DONE WITH GRADIENT ...
 CPU     0: STEP CPU TIME=     0.00 TOTAL CPU TIME=          0.4 (      0.0 MIN)
 TOTAL WALL CLOCK TIME=          0.6 SECONDS, CPU UTILIZATION IS    66.10%

 OBTAINING GRADIENT FOR Y FIELD AT STRENGTH -0.004


          --------------------------
                 RHF SCF CALCULATION
          --------------------------
     DENSITY MATRIX CONV=  2.00E-06

 DIRECT SCF CALCULATION, SCHWRZ=T   FDIFF=T,  DIRTHR=  0.00E+00 NITDIR=10

                                                                                                                   NONZERO     BLOCKS
 ITER EX DEM     TOTAL ENERGY        E CHANGE  DENSITY CHANGE     ORB. GRAD      VIR. SHIFT       DAMPING        INTEGRALS    SKIPPED
          ---------------START SECOND ORDER SCF---------------
   1  0  0      -76.0217037508   -76.0217037508   0.005853956   0.002683306     0.000000000     0.000000000          19819          0
   2  1  0      -76.0217548696    -0.0000511188   0.001960277   0.000619445     0.000000000     0.000000000          19819          0
   3  2  0      -76.0217588228    -0.0000039532   0.000223025   0.000133629     0.000000000     0.000000000          19819          0
   4  3  0      -76.0217589806    -0.0000001579   0.000098648   0.000038199     0.000000000     0.000000000          19819          0
   5  4  0      -76.0217589942    -0.0000000136   0.000023780   0.000017689     0.000000000     0.000000000          19819          0
   6  5  0      -76.0217589961    -0.0000000019   0.000004908   0.000002400     0.000000000     0.000000000          19819          0
   7  6  0      -76.0217589961    -0.0000000000   0.000001548   0.000000536     0.000000000     0.000000000          19819          0
   8  7  0      -76.0217589961    -0.0000000000   0.000000328   0.000000106     0.000000000     0.000000000          19819          0

          -----------------
          DENSITY CONVERGED
          -----------------
     TIME TO FORM FOCK OPERATORS=       0.0 SECONDS (       0.0 SEC/ITER)
     FOCK TIME ON FIRST ITERATION=       0.0, LAST ITERATION=       0.0
     TIME TO SOLVE SCF EQUATIONS=       0.0 SECONDS (       0.0 SEC/ITER)

 FINAL RHF ENERGY IS      -76.0217589961 AFTER   8 ITERATIONS
 ...... END OF RHF CALCULATION ......
 CPU     0: STEP CPU TIME=     0.07 TOTAL CPU TIME=          0.5 (      0.0 MIN)
 TOTAL WALL CLOCK TIME=          0.7 SECONDS, CPU UTILIZATION IS    67.65%
 ..... END OF 1-ELECTRON GRADIENT ......
 CPU     0: STEP CPU TIME=     0.01 TOTAL CPU TIME=          0.5 (      0.0 MIN)
 TOTAL WALL CLOCK TIME=          0.7 SECONDS, CPU UTILIZATION IS    68.12%
 ...... END OF 2-ELECTRON GRADIENT ......
 CPU     0: STEP CPU TIME=     0.01 TOTAL CPU TIME=          0.5 (      0.0 MIN)
 TOTAL WALL CLOCK TIME=          0.7 SECONDS, CPU UTILIZATION IS    68.57%
 ... DONE WITH GRADIENT ...
 CPU     0: STEP CPU TIME=     0.00 TOTAL CPU TIME=          0.5 (      0.0 MIN)
 TOTAL WALL CLOCK TIME=          0.7 SECONDS, CPU UTILIZATION IS    68.57%

 OBTAINING GRADIENT FOR Z FIELD AT STRENGTH  0.004


          --------------------------
                 RHF SCF CALCULATION
          --------------------------
     DENSITY MATRIX CONV=  2.00E-06

 DIRECT SCF CALCULATION, SCHWRZ=T   FDIFF=T,  DIRTHR=  0.00E+00 NITDIR=10

                                                                                                                   NONZERO     BLOCKS
 ITER EX DEM     TOTAL ENERGY        E CHANGE  DENSITY CHANGE     ORB. GRAD      VIR. SHIFT       DAMPING        INTEGRALS    SKIPPED
          ---------------START SECOND ORDER SCF---------------
   1  0  0      -76.0212717583   -76.0212717583   0.013169193   0.001914693     0.000000000     0.000000000          19819          0
   2  1  0      -76.0213033716    -0.0000316133   0.006137564   0.000767216     0.000000000     0.000000000          19819          0
   3  2  0      -76.0213073674    -0.0000039958   0.000399056   0.000119550     0.000000000     0.000000000          19819          0
   4  3  0      -76.0213074919    -0.0000001245   0.000227357   0.000059994     0.000000000     0.000000000          19819          0
   5  4  0      -76.0213075095    -0.0000000176   0.000056756   0.000010299     0.000000000     0.000000000          19819          0
   6  5  0      -76.0213075104    -0.0000000009   0.000012197   0.000003939     0.000000000     0.000000000          19819          0
   7  6  0      -76.0213075105    -0.0000000001   0.000005113   0.000001395     0.000000000     0.000000000          19819          0
   8  7  0      -76.0213075106    -0.0000000000   0.000001395   0.000000287     0.000000000     0.000000000          19819          0
   9  8  0      -76.0213075106    -0.0000000000   0.000000149   0.000000067     0.000000000     0.000000000          19800          9

          -----------------
          DENSITY CONVERGED
          -----------------
     TIME TO FORM FOCK OPERATORS=       0.0 SECONDS (       0.0 SEC/ITER)
     FOCK TIME ON FIRST ITERATION=       0.0, LAST ITERATION=       0.0
     TIME TO SOLVE SCF EQUATIONS=       0.0 SECONDS (       0.0 SEC/ITER)

 FINAL RHF ENERGY IS      -76.0213075106 AFTER   9 ITERATIONS
 ...... END OF RHF CALCULATION ......
 CPU     0: STEP CPU TIME=     0.07 TOTAL CPU TIME=          0.5 (      0.0 MIN)
 TOTAL WALL CLOCK TIME=          0.8 SECONDS, CPU UTILIZATION IS    68.75%
 ..... END OF 1-ELECTRON GRADIENT ......
 CPU     0: STEP CPU TIME=     0.02 TOTAL CPU TIME=          0.6 (      0.0 MIN)
 TOTAL WALL CLOCK TIME=          0.8 SECONDS, CPU UTILIZATION IS    69.51%
 ...... END OF 2-ELECTRON GRADIENT ......
 CPU     0: STEP CPU TIME=     0.00 TOTAL CPU TIME=          0.6 (      0.0 MIN)
 TOTAL WALL CLOCK TIME=          0.8 SECONDS, CPU UTILIZATION IS    68.67%
 ... DONE WITH GRADIENT ...
 CPU     0: STEP CPU TIME=     0.00 TOTAL CPU TIME=          0.6 (      0.0 MIN)
 TOTAL WALL CLOCK TIME=          0.8 SECONDS, CPU UTILIZATION IS    68.67%

 OBTAINING GRADIENT FOR Z FIELD AT STRENGTH -0.004


          --------------------------
                 RHF SCF CALCULATION
          --------------------------
     DENSITY MATRIX CONV=  2.00E-06

 DIRECT SCF CALCULATION, SCHWRZ=T   FDIFF=T,  DIRTHR=  0.00E+00 NITDIR=10

                                                                                                                   NONZERO     BLOCKS
 ITER EX DEM     TOTAL ENERGY        E CHANGE  DENSITY CHANGE     ORB. GRAD      VIR. SHIFT       DAMPING        INTEGRALS    SKIPPED
          ---------------START SECOND ORDER SCF---------------
   1  0  0      -76.0212717583   -76.0212717583   0.013185441   0.001914693     0.000000000     0.000000000          19819          0
   2  1  0      -76.0213033822    -0.0000316238   0.006124048   0.000765880     0.000000000     0.000000000          19819          0
   3  2  0      -76.0213073677    -0.0000039855   0.000399335   0.000119202     0.000000000     0.000000000          19819          0
   4  3  0      -76.0213074920    -0.0000001243   0.000227581   0.000059887     0.000000000     0.000000000          19819          0
   5  4  0      -76.0213075095    -0.0000000175   0.000056424   0.000010222     0.000000000     0.000000000          19819          0
   6  5  0      -76.0213075104    -0.0000000009   0.000012056   0.000003904     0.000000000     0.000000000          19819          0
   7  6  0      -76.0213075105    -0.0000000001   0.000005128   0.000001382     0.000000000     0.000000000          19819          0
   8  7  0      -76.0213075106    -0.0000000000   0.000001394   0.000000287     0.000000000     0.000000000          19819          0
   9  8  0      -76.0213075106    -0.0000000000   0.000000145   0.000000067     0.000000000     0.000000000          19800          9

          -----------------
          DENSITY CONVERGED
          -----------------
     TIME TO FORM FOCK OPERATORS=       0.0 SECONDS (       0.0 SEC/ITER)
     FOCK TIME ON FIRST ITERATION=       0.0, LAST ITERATION=       0.0
     TIME TO SOLVE SCF EQUATIONS=       0.0 SECONDS (       0.0 SEC/ITER)

 FINAL RHF ENERGY IS      -76.0213075106 AFTER   9 ITERATIONS
 ...... END OF RHF CALCULATION ......
 CPU     0: STEP CPU TIME=     0.08 TOTAL CPU TIME=          0.6 (      0.0 MIN)
 TOTAL WALL CLOCK TIME=          0.9 SECONDS, CPU UTILIZATION IS    71.43%
 ..... END OF 1-ELECTRON GRADIENT ......
 CPU     0: STEP CPU TIME=     0.01 TOTAL CPU TIME=          0.7 (      0.0 MIN)
 TOTAL WALL CLOCK TIME=          0.9 SECONDS, CPU UTILIZATION IS    70.97%
 ...... END OF 2-ELECTRON GRADIENT ......
 CPU     0: STEP CPU TIME=     0.01 TOTAL CPU TIME=          0.7 (      0.0 MIN)
 TOTAL WALL CLOCK TIME=          0.9 SECONDS, CPU UTILIZATION IS    71.28%
 ... DONE WITH GRADIENT ...
 CPU     0: STEP CPU TIME=     0.00 TOTAL CPU TIME=          0.7 (      0.0 MIN)
 TOTAL WALL CLOCK TIME=          0.9 SECONDS, CPU UTILIZATION IS    71.28%

 OBTAINING GRADIENT FOR Y FIELD AT STRENGTH  0.002 AND X FIELD AT  0.002


          --------------------------
                 RHF SCF CALCULATION
          --------------------------
     DENSITY MATRIX CONV=  2.00E-06

 DIRECT SCF CALCULATION, SCHWRZ=T   FDIFF=T,  DIRTHR=  0.00E+00 NITDIR=10

                                                                                                                   NONZERO     BLOCKS
 ITER EX DEM     TOTAL ENERGY        E CHANGE  DENSITY CHANGE     ORB. GRAD      VIR. SHIFT       DAMPING        INTEGRALS    SKIPPED
          ---------------START SECOND ORDER SCF---------------
   1  0  0      -76.0191461305   -76.0191461305   0.004221297   0.001315339     0.000000000     0.000000000          19819          0
   2  1  0      -76.0191670994    -0.0000209688   0.001434842   0.000339551     0.000000000     0.000000000          19819          0
   3  2  0      -76.0191692080    -0.0000021086   0.000285016   0.000169306     0.000000000     0.000000000          19819          0
   4  3  0      -76.0191694061    -0.0000001981   0.000140698   0.000059034     0.000000000     0.000000000          19819          0
   5  4  0      -76.0191694254    -0.0000000193   0.000030249   0.000011804     0.000000000     0.000000000          19819          0
   6  5  0      -76.0191694267    -0.0000000013   0.000007006   0.000002661     0.000000000     0.000000000          19819          0
   7  6  0      -76.0191694267    -0.0000000001   0.000002026   0.000000684     0.000000000     0.000000000          19819          0
   8  7  0      -76.0191694267    -0.0000000000   0.000000348   0.000000128     0.000000000     0.000000000          19819          0

          -----------------
          DENSITY CONVERGED
          -----------------
     TIME TO FORM FOCK OPERATORS=       0.0 SECONDS (       0.0 SEC/ITER)
     FOCK TIME ON FIRST ITERATION=       0.0, LAST ITERATION=       0.0
     TIME TO SOLVE SCF EQUATIONS=       0.0 SECONDS (       0.0 SEC/ITER)

 FINAL RHF ENERGY IS      -76.0191694267 AFTER   8 ITERATIONS
 ...... END OF RHF CALCULATION ......
 CPU     0: STEP CPU TIME=     0.07 TOTAL CPU TIME=          0.7 (      0.0 MIN)
 TOTAL WALL CLOCK TIME=          1.0 SECONDS, CPU UTILIZATION IS    73.27%
 ..... END OF 1-ELECTRON GRADIENT ......
 CPU     0: STEP CPU TIME=     0.01 TOTAL CPU TIME=          0.8 (      0.0 MIN)
 TOTAL WALL CLOCK TIME=          1.0 SECONDS, CPU UTILIZATION IS    73.53%
 ...... END OF 2-ELECTRON GRADIENT ......
 CPU     0: STEP CPU TIME=     0.01 TOTAL CPU TIME=          0.8 (      0.0 MIN)
 TOTAL WALL CLOCK TIME=          1.0 SECONDS, CPU UTILIZATION IS    73.08%
 ... DONE WITH GRADIENT ...
 CPU     0: STEP CPU TIME=     0.00 TOTAL CPU TIME=          0.8 (      0.0 MIN)
 TOTAL WALL CLOCK TIME=          1.0 SECONDS, CPU UTILIZATION IS    73.08%

 OBTAINING GRADIENT FOR Y FIELD AT STRENGTH  0.002 AND X FIELD AT -0.002


          --------------------------
                 RHF SCF CALCULATION
          --------------------------
     DENSITY MATRIX CONV=  2.00E-06

 DIRECT SCF CALCULATION, SCHWRZ=T   FDIFF=T,  DIRTHR=  0.00E+00 NITDIR=10

                                                                                                                   NONZERO     BLOCKS
 ITER EX DEM     TOTAL ENERGY        E CHANGE  DENSITY CHANGE     ORB. GRAD      VIR. SHIFT       DAMPING        INTEGRALS    SKIPPED
          ---------------START SECOND ORDER SCF---------------
   1  0  0      -76.0229653937   -76.0229653937   0.003969104   0.001493362     0.000000000     0.000000000          19819          0
   2  1  0      -76.0229880408    -0.0000226472   0.001394111   0.000342039     0.000000000     0.000000000          19819          0
   3  2  0      -76.0229900385    -0.0000019976   0.000288757   0.000144473     0.000000000     0.000000000          19819          0
   4  3  0      -76.0229901857    -0.0000001472   0.000110962   0.000064579     0.000000000     0.000000000          19819          0
   5  4  0      -76.0229902058    -0.0000000201   0.000026052   0.000008829     0.000000000     0.000000000          19819          0
   6  5  0      -76.0229902068    -0.0000000009   0.000006543   0.000002314     0.000000000     0.000000000          19819          0
   7  6  0      -76.0229902068    -0.0000000001   0.000001557   0.000000552     0.000000000     0.000000000          19819          0
   8  7  0      -76.0229902068    -0.0000000000   0.000000303   0.000000123     0.000000000     0.000000000          19819          0

          -----------------
          DENSITY CONVERGED
          -----------------
     TIME TO FORM FOCK OPERATORS=       0.0 SECONDS (       0.0 SEC/ITER)
     FOCK TIME ON FIRST ITERATION=       0.0, LAST ITERATION=       0.0
     TIME TO SOLVE SCF EQUATIONS=       0.0 SECONDS (       0.0 SEC/ITER)

 FINAL RHF ENERGY IS      -76.0229902068 AFTER   8 ITERATIONS
 ...... END OF RHF CALCULATION ......
 CPU     0: STEP CPU TIME=     0.07 TOTAL CPU TIME=          0.8 (      0.0 MIN)
 TOTAL WALL CLOCK TIME=          1.1 SECONDS, CPU UTILIZATION IS    74.11%
 ..... END OF 1-ELECTRON GRADIENT ......
 CPU     0: STEP CPU TIME=     0.01 TOTAL CPU TIME=          0.8 (      0.0 MIN)
 TOTAL WALL CLOCK TIME=          1.1 SECONDS, CPU UTILIZATION IS    74.34%
 ...... END OF 2-ELECTRON GRADIENT ......
 CPU     0: STEP CPU TIME=     0.01 TOTAL CPU TIME=          0.8 (      0.0 MIN)
 TOTAL WALL CLOCK TIME=          1.1 SECONDS, CPU UTILIZATION IS    74.56%
 ... DONE WITH GRADIENT ...
 CPU     0: STEP CPU TIME=     0.00 TOTAL CPU TIME=          0.8 (      0.0 MIN)
 TOTAL WALL CLOCK TIME=          1.1 SECONDS, CPU UTILIZATION IS    74.56%

 OBTAINING GRADIENT FOR Y FIELD AT STRENGTH -0.002 AND X FIELD AT  0.002


          --------------------------
                 RHF SCF CALCULATION
          --------------------------
     DENSITY MATRIX CONV=  2.00E-06

 DIRECT SCF CALCULATION, SCHWRZ=T   FDIFF=T,  DIRTHR=  0.00E+00 NITDIR=10

                                                                                                                   NONZERO     BLOCKS
 ITER EX DEM     TOTAL ENERGY        E CHANGE  DENSITY CHANGE     ORB. GRAD      VIR. SHIFT       DAMPING        INTEGRALS    SKIPPED
          ---------------START SECOND ORDER SCF---------------
   1  0  0      -76.0195781230   -76.0195781230   0.003953656   0.001493361     0.000000000     0.000000000          19819          0
   2  1  0      -76.0196008088    -0.0000226858   0.001427576   0.000349301     0.000000000     0.000000000          19819          0
   3  2  0      -76.0196028918    -0.0000020831   0.000296488   0.000138984     0.000000000     0.000000000          19819          0
   4  3  0      -76.0196030465    -0.0000001547   0.000116462   0.000067962     0.000000000     0.000000000          19819          0
   5  4  0      -76.0196030690    -0.0000000225   0.000029358   0.000009743     0.000000000     0.000000000          19819          0
   6  5  0      -76.0196030702    -0.0000000012   0.000007152   0.000002558     0.000000000     0.000000000          19819          0
   7  6  0      -76.0196030703    -0.0000000001   0.000001853   0.000000621     0.000000000     0.000000000          19819          0
   8  7  0      -76.0196030703    -0.0000000000   0.000000363   0.000000144     0.000000000     0.000000000          19819          0

          -----------------
          DENSITY CONVERGED
          -----------------
     TIME TO FORM FOCK OPERATORS=       0.0 SECONDS (       0.0 SEC/ITER)
     FOCK TIME ON FIRST ITERATION=       0.0, LAST ITERATION=       0.0
     TIME TO SOLVE SCF EQUATIONS=       0.0 SECONDS (       0.0 SEC/ITER)

 FINAL RHF ENERGY IS      -76.0196030703 AFTER   8 ITERATIONS
 ...... END OF RHF CALCULATION ......
 CPU     0: STEP CPU TIME=     0.06 TOTAL CPU TIME=          0.9 (      0.0 MIN)
 TOTAL WALL CLOCK TIME=          1.2 SECONDS, CPU UTILIZATION IS    72.80%
 ..... END OF 1-ELECTRON GRADIENT ......
 CPU     0: STEP CPU TIME=     0.02 TOTAL CPU TIME=          0.9 (      0.0 MIN)
 TOTAL WALL CLOCK TIME=          1.3 SECONDS, CPU UTILIZATION IS    73.23%
 ...... END OF 2-ELECTRON GRADIENT ......
 CPU     0: STEP CPU TIME=     0.00 TOTAL CPU TIME=          0.9 (      0.0 MIN)
 TOTAL WALL CLOCK TIME=          1.3 SECONDS, CPU UTILIZATION IS    72.66%
 ... DONE WITH GRADIENT ...
 CPU     0: STEP CPU TIME=     0.00 TOTAL CPU TIME=          0.9 (      0.0 MIN)
 TOTAL WALL CLOCK TIME=          1.3 SECONDS, CPU UTILIZATION IS    72.66%

 OBTAINING GRADIENT FOR Y FIELD AT STRENGTH -0.002 AND X FIELD AT -0.002


          --------------------------
                 RHF SCF CALCULATION
          --------------------------
     DENSITY MATRIX CONV=  2.00E-06

 DIRECT SCF CALCULATION, SCHWRZ=T   FDIFF=T,  DIRTHR=  0.00E+00 NITDIR=10

                                                                                                                   NONZERO     BLOCKS
 ITER EX DEM     TOTAL ENERGY        E CHANGE  DENSITY CHANGE     ORB. GRAD      VIR. SHIFT       DAMPING        INTEGRALS    SKIPPED
          ---------------START SECOND ORDER SCF---------------
   1  0  0      -76.0233973862   -76.0233973862   0.004235916   0.001315322     0.000000000     0.000000000          19819          0
   2  1  0      -76.0234183077    -0.0000209216   0.001408187   0.000337791     0.000000000     0.000000000          19819          0
   3  2  0      -76.0234203485    -0.0000020408   0.000279665   0.000174117     0.000000000     0.000000000          19819          0
   4  3  0      -76.0234205413    -0.0000001928   0.000134911   0.000055680     0.000000000     0.000000000          19819          0
   5  4  0      -76.0234205584    -0.0000000171   0.000027126   0.000010644     0.000000000     0.000000000          19819          0
   6  5  0      -76.0234205594    -0.0000000010   0.000006454   0.000002476     0.000000000     0.000000000          19819          0
   7  6  0      -76.0234205595    -0.0000000001   0.000001839   0.000000680     0.000000000     0.000000000          19819          0
   8  7  0      -76.0234205595    -0.0000000000   0.000000365   0.000000118     0.000000000     0.000000000          19819          0

          -----------------
          DENSITY CONVERGED
          -----------------
     TIME TO FORM FOCK OPERATORS=       0.0 SECONDS (       0.0 SEC/ITER)
     FOCK TIME ON FIRST ITERATION=       0.0, LAST ITERATION=       0.0
     TIME TO SOLVE SCF EQUATIONS=       0.0 SECONDS (       0.0 SEC/ITER)

 FINAL RHF ENERGY IS      -76.0234205595 AFTER   8 ITERATIONS
 ...... END OF RHF CALCULATION ......
 CPU     0: STEP CPU TIME=     0.06 TOTAL CPU TIME=          1.0 (      0.0 MIN)
 TOTAL WALL CLOCK TIME=          1.4 SECONDS, CPU UTILIZATION IS    72.26%
 ..... END OF 1-ELECTRON GRADIENT ......
 CPU     0: STEP CPU TIME=     0.00 TOTAL CPU TIME=          1.0 (      0.0 MIN)
 TOTAL WALL CLOCK TIME=          1.4 SECONDS, CPU UTILIZATION IS    71.22%
 ...... END OF 2-ELECTRON GRADIENT ......
 CPU     0: STEP CPU TIME=     0.01 TOTAL CPU TIME=          1.0 (      0.0 MIN)
 TOTAL WALL CLOCK TIME=          1.4 SECONDS, CPU UTILIZATION IS    71.43%
 ... DONE WITH GRADIENT ...
 CPU     0: STEP CPU TIME=     0.00 TOTAL CPU TIME=          1.0 (      0.0 MIN)
 TOTAL WALL CLOCK TIME=          1.4 SECONDS, CPU UTILIZATION IS    71.43%

 OBTAINING GRADIENT FOR Z FIELD AT STRENGTH  0.002 AND X FIELD AT  0.002


          --------------------------
                 RHF SCF CALCULATION
          --------------------------
     DENSITY MATRIX CONV=  2.00E-06

 DIRECT SCF CALCULATION, SCHWRZ=T   FDIFF=T,  DIRTHR=  0.00E+00 NITDIR=10

                                                                                                                   NONZERO     BLOCKS
 ITER EX DEM     TOTAL ENERGY        E CHANGE  DENSITY CHANGE     ORB. GRAD      VIR. SHIFT       DAMPING        INTEGRALS    SKIPPED
          ---------------START SECOND ORDER SCF---------------
   1  0  0      -76.0193621268   -76.0193621268   0.006568811   0.001181726     0.000000000     0.000000000          19819          0
   2  1  0      -76.0193790490    -0.0000169222   0.003263518   0.000389382     0.000000000     0.000000000          19819          0
   3  2  0      -76.0193811100    -0.0000020610   0.000289450   0.000166701     0.000000000     0.000000000          19819          0
   4  3  0      -76.0193812931    -0.0000001830   0.000181251   0.000055055     0.000000000     0.000000000          19819          0
   5  4  0      -76.0193813118    -0.0000000187   0.000050452   0.000013862     0.000000000     0.000000000          19819          0
   6  5  0      -76.0193813136    -0.0000000019   0.000007435   0.000003163     0.000000000     0.000000000          19819          0
   7  6  0      -76.0193813138    -0.0000000001   0.000001918   0.000000789     0.000000000     0.000000000          19819          0
   8  7  0      -76.0193813138    -0.0000000000   0.000000661   0.000000136     0.000000000     0.000000000          19819          0

          -----------------
          DENSITY CONVERGED
          -----------------
     TIME TO FORM FOCK OPERATORS=       0.0 SECONDS (       0.0 SEC/ITER)
     FOCK TIME ON FIRST ITERATION=       0.0, LAST ITERATION=       0.0
     TIME TO SOLVE SCF EQUATIONS=       0.0 SECONDS (       0.0 SEC/ITER)

 FINAL RHF ENERGY IS      -76.0193813138 AFTER   8 ITERATIONS
 ...... END OF RHF CALCULATION ......
 CPU     0: STEP CPU TIME=     0.05 TOTAL CPU TIME=          1.0 (      0.0 MIN)
 TOTAL WALL CLOCK TIME=          1.5 SECONDS, CPU UTILIZATION IS    70.47%
 ..... END OF 1-ELECTRON GRADIENT ......
 CPU     0: STEP CPU TIME=     0.00 TOTAL CPU TIME=          1.0 (      0.0 MIN)
 TOTAL WALL CLOCK TIME=          1.5 SECONDS, CPU UTILIZATION IS    70.00%
 ...... END OF 2-ELECTRON GRADIENT ......
 CPU     0: STEP CPU TIME=     0.01 TOTAL CPU TIME=          1.1 (      0.0 MIN)
 TOTAL WALL CLOCK TIME=          1.5 SECONDS, CPU UTILIZATION IS    70.20%
 ... DONE WITH GRADIENT ...
 CPU     0: STEP CPU TIME=     0.00 TOTAL CPU TIME=          1.1 (      0.0 MIN)
 TOTAL WALL CLOCK TIME=          1.5 SECONDS, CPU UTILIZATION IS    70.20%

 OBTAINING GRADIENT FOR Z FIELD AT STRENGTH  0.002 AND X FIELD AT -0.002


          --------------------------
                 RHF SCF CALCULATION
          --------------------------
     DENSITY MATRIX CONV=  2.00E-06

 DIRECT SCF CALCULATION, SCHWRZ=T   FDIFF=T,  DIRTHR=  0.00E+00 NITDIR=10

                                                                                                                   NONZERO     BLOCKS
 ITER EX DEM     TOTAL ENERGY        E CHANGE  DENSITY CHANGE     ORB. GRAD      VIR. SHIFT       DAMPING        INTEGRALS    SKIPPED
          ---------------START SECOND ORDER SCF---------------
   1  0  0      -76.0231813899   -76.0231813899   0.006611543   0.001181709     0.000000000     0.000000000          19819          0
   2  1  0      -76.0231983150    -0.0000169251   0.003193997   0.000377380     0.000000000     0.000000000          19819          0
   3  2  0      -76.0232003378    -0.0000020228   0.000290273   0.000173870     0.000000000     0.000000000          19819          0
   4  3  0      -76.0232005244    -0.0000001866   0.000180973   0.000054304     0.000000000     0.000000000          19819          0
   5  4  0      -76.0232005415    -0.0000000171   0.000045966   0.000012298     0.000000000     0.000000000          19819          0
   6  5  0      -76.0232005430    -0.0000000015   0.000006804   0.000002602     0.000000000     0.000000000          19819          0
   7  6  0      -76.0232005431    -0.0000000001   0.000001698   0.000000679     0.000000000     0.000000000          19819          0
   8  7  0      -76.0232005431    -0.0000000000   0.000000583   0.000000140     0.000000000     0.000000000          19819          0

          -----------------
          DENSITY CONVERGED
          -----------------
     TIME TO FORM FOCK OPERATORS=       0.0 SECONDS (       0.0 SEC/ITER)
     FOCK TIME ON FIRST ITERATION=       0.0, LAST ITERATION=       0.0
     TIME TO SOLVE SCF EQUATIONS=       0.0 SECONDS (       0.0 SEC/ITER)

 FINAL RHF ENERGY IS      -76.0232005431 AFTER   8 ITERATIONS
 ...... END OF RHF CALCULATION ......
 CPU     0: STEP CPU TIME=     0.05 TOTAL CPU TIME=          1.1 (      0.0 MIN)
 TOTAL WALL CLOCK TIME=          1.6 SECONDS, CPU UTILIZATION IS    69.81%
 ..... END OF 1-ELECTRON GRADIENT ......
 CPU     0: STEP CPU TIME=     0.02 TOTAL CPU TIME=          1.1 (      0.0 MIN)
 TOTAL WALL CLOCK TIME=          1.6 SECONDS, CPU UTILIZATION IS    70.62%
 ...... END OF 2-ELECTRON GRADIENT ......
 CPU     0: STEP CPU TIME=     0.00 TOTAL CPU TIME=          1.1 (      0.0 MIN)
 TOTAL WALL CLOCK TIME=          1.6 SECONDS, CPU UTILIZATION IS    70.19%
 ... DONE WITH GRADIENT ...
 CPU     0: STEP CPU TIME=     0.00 TOTAL CPU TIME=          1.1 (      0.0 MIN)
 TOTAL WALL CLOCK TIME=          1.6 SECONDS, CPU UTILIZATION IS    70.19%

 OBTAINING GRADIENT FOR Z FIELD AT STRENGTH -0.002 AND X FIELD AT  0.002


          --------------------------
                 RHF SCF CALCULATION
          --------------------------
     DENSITY MATRIX CONV=  2.00E-06

 DIRECT SCF CALCULATION, SCHWRZ=T   FDIFF=T,  DIRTHR=  0.00E+00 NITDIR=10

                                                                                                                   NONZERO     BLOCKS
 ITER EX DEM     TOTAL ENERGY        E CHANGE  DENSITY CHANGE     ORB. GRAD      VIR. SHIFT       DAMPING        INTEGRALS    SKIPPED
          ---------------START SECOND ORDER SCF---------------
   1  0  0      -76.0193621268   -76.0193621268   0.006571785   0.001181726     0.000000000     0.000000000          19819          0
   2  1  0      -76.0193790505    -0.0000169237   0.003261834   0.000389071     0.000000000     0.000000000          19819          0
   3  2  0      -76.0193811101    -0.0000020597   0.000289346   0.000166789     0.000000000     0.000000000          19819          0
   4  3  0      -76.0193812931    -0.0000001830   0.000181402   0.000054994     0.000000000     0.000000000          19819          0
   5  4  0      -76.0193813118    -0.0000000186   0.000050391   0.000013839     0.000000000     0.000000000          19819          0
   6  5  0      -76.0193813136    -0.0000000019   0.000007435   0.000003157     0.000000000     0.000000000          19819          0
   7  6  0      -76.0193813138    -0.0000000001   0.000001916   0.000000787     0.000000000     0.000000000          19819          0
   8  7  0      -76.0193813138    -0.0000000000   0.000000664   0.000000135     0.000000000     0.000000000          19819          0

          -----------------
          DENSITY CONVERGED
          -----------------
     TIME TO FORM FOCK OPERATORS=       0.0 SECONDS (       0.0 SEC/ITER)
     FOCK TIME ON FIRST ITERATION=       0.0, LAST ITERATION=       0.0
     TIME TO SOLVE SCF EQUATIONS=       0.0 SECONDS (       0.0 SEC/ITER)

 FINAL RHF ENERGY IS      -76.0193813138 AFTER   8 ITERATIONS
 ...... END OF RHF CALCULATION ......
 CPU     0: STEP CPU TIME=     0.05 TOTAL CPU TIME=          1.2 (      0.0 MIN)
 TOTAL WALL CLOCK TIME=          1.7 SECONDS, CPU UTILIZATION IS    69.82%
 ..... END OF 1-ELECTRON GRADIENT ......
 CPU     0: STEP CPU TIME=     0.02 TOTAL CPU TIME=          1.2 (      0.0 MIN)
 TOTAL WALL CLOCK TIME=          1.7 SECONDS, CPU UTILIZATION IS    70.59%
 ...... END OF 2-ELECTRON GRADIENT ......
 CPU     0: STEP CPU TIME=     0.00 TOTAL CPU TIME=          1.2 (      0.0 MIN)
 TOTAL WALL CLOCK TIME=          1.7 SECONDS, CPU UTILIZATION IS    70.18%
 ... DONE WITH GRADIENT ...
 CPU     0: STEP CPU TIME=     0.00 TOTAL CPU TIME=          1.2 (      0.0 MIN)
 TOTAL WALL CLOCK TIME=          1.7 SECONDS, CPU UTILIZATION IS    70.18%

 OBTAINING GRADIENT FOR Z FIELD AT STRENGTH -0.002 AND X FIELD AT -0.002


          --------------------------
                 RHF SCF CALCULATION
          --------------------------
     DENSITY MATRIX CONV=  2.00E-06

 DIRECT SCF CALCULATION, SCHWRZ=T   FDIFF=T,  DIRTHR=  0.00E+00 NITDIR=10

                                                                                                                   NONZERO     BLOCKS
 ITER EX DEM     TOTAL ENERGY        E CHANGE  DENSITY CHANGE     ORB. GRAD      VIR. SHIFT       DAMPING        INTEGRALS    SKIPPED
          ---------------START SECOND ORDER SCF---------------
   1  0  0      -76.0231813899   -76.0231813899   0.006611543   0.001181709     0.000000000     0.000000000          19819          0
   2  1  0      -76.0231983150    -0.0000169251   0.003193997   0.000377380     0.000000000     0.000000000          19819          0
   3  2  0      -76.0232003378    -0.0000020228   0.000290273   0.000173870     0.000000000     0.000000000          19819          0
   4  3  0      -76.0232005244    -0.0000001866   0.000180973   0.000054304     0.000000000     0.000000000          19819          0
   5  4  0      -76.0232005415    -0.0000000171   0.000045966   0.000012298     0.000000000     0.000000000          19819          0
   6  5  0      -76.0232005430    -0.0000000015   0.000006804   0.000002602     0.000000000     0.000000000          19819          0
   7  6  0      -76.0232005431    -0.0000000001   0.000001698   0.000000679     0.000000000     0.000000000          19819          0
   8  7  0      -76.0232005431    -0.0000000000   0.000000583   0.000000140     0.000000000     0.000000000          19819          0

          -----------------
          DENSITY CONVERGED
          -----------------
     TIME TO FORM FOCK OPERATORS=       0.0 SECONDS (       0.0 SEC/ITER)
     FOCK TIME ON FIRST ITERATION=       0.0, LAST ITERATION=       0.0
     TIME TO SOLVE SCF EQUATIONS=       0.0 SECONDS (       0.0 SEC/ITER)

 FINAL RHF ENERGY IS      -76.0232005431 AFTER   8 ITERATIONS
 ...... END OF RHF CALCULATION ......
 CPU     0: STEP CPU TIME=     0.06 TOTAL CPU TIME=          1.3 (      0.0 MIN)
 TOTAL WALL CLOCK TIME=          1.8 SECONDS, CPU UTILIZATION IS    70.79%
 ..... END OF 1-ELECTRON GRADIENT ......
 CPU     0: STEP CPU TIME=     0.01 TOTAL CPU TIME=          1.3 (      0.0 MIN)
 TOTAL WALL CLOCK TIME=          1.8 SECONDS, CPU UTILIZATION IS    70.95%
 ...... END OF 2-ELECTRON GRADIENT ......
 CPU     0: STEP CPU TIME=     0.00 TOTAL CPU TIME=          1.3 (      0.0 MIN)
 TOTAL WALL CLOCK TIME=          1.8 SECONDS, CPU UTILIZATION IS    70.56%
 ... DONE WITH GRADIENT ...
 CPU     0: STEP CPU TIME=     0.00 TOTAL CPU TIME=          1.3 (      0.0 MIN)
 TOTAL WALL CLOCK TIME=          1.8 SECONDS, CPU UTILIZATION IS    70.56%

 OBTAINING GRADIENT FOR Z FIELD AT STRENGTH  0.002 AND Y FIELD AT  0.002


          --------------------------
                 RHF SCF CALCULATION
          --------------------------
     DENSITY MATRIX CONV=  2.00E-06

 DIRECT SCF CALCULATION, SCHWRZ=T   FDIFF=T,  DIRTHR=  0.00E+00 NITDIR=10

                                                                                                                   NONZERO     BLOCKS
 ITER EX DEM     TOTAL ENERGY        E CHANGE  DENSITY CHANGE     ORB. GRAD      VIR. SHIFT       DAMPING        INTEGRALS    SKIPPED
          ---------------START SECOND ORDER SCF---------------
   1  0  0      -76.0210557621   -76.0210557621   0.006571782   0.001341653     0.000000000     0.000000000          19819          0
   2  1  0      -76.0210764389    -0.0000206768   0.002887055   0.000386079     0.000000000     0.000000000          19819          0
   3  2  0      -76.0210784401    -0.0000020012   0.000249017   0.000074499     0.000000000     0.000000000          19819          0
   4  3  0      -76.0210785192    -0.0000000791   0.000098455   0.000028897     0.000000000     0.000000000          19819          0
   5  4  0      -76.0210785277    -0.0000000085   0.000036859   0.000011755     0.000000000     0.000000000          19819          0
   6  5  0      -76.0210785287    -0.0000000010   0.000005771   0.000002789     0.000000000     0.000000000          19819          0
   7  6  0      -76.0210785287    -0.0000000001   0.000002145   0.000000813     0.000000000     0.000000000          19819          0
   8  7  0      -76.0210785288    -0.0000000000   0.000000474   0.000000149     0.000000000     0.000000000          19819          0

          -----------------
          DENSITY CONVERGED
          -----------------
     TIME TO FORM FOCK OPERATORS=       0.0 SECONDS (       0.0 SEC/ITER)
     FOCK TIME ON FIRST ITERATION=       0.0, LAST ITERATION=       0.0
     TIME TO SOLVE SCF EQUATIONS=       0.0 SECONDS (       0.0 SEC/ITER)

 FINAL RHF ENERGY IS      -76.0210785288 AFTER   8 ITERATIONS
 ...... END OF RHF CALCULATION ......
 CPU     0: STEP CPU TIME=     0.06 TOTAL CPU TIME=          1.3 (      0.0 MIN)
 TOTAL WALL CLOCK TIME=          1.9 SECONDS, CPU UTILIZATION IS    70.74%
 ..... END OF 1-ELECTRON GRADIENT ......
 CPU     0: STEP CPU TIME=     0.01 TOTAL CPU TIME=          1.3 (      0.0 MIN)
 TOTAL WALL CLOCK TIME=          1.9 SECONDS, CPU UTILIZATION IS    70.90%
 ...... END OF 2-ELECTRON GRADIENT ......
 CPU     0: STEP CPU TIME=     0.00 TOTAL CPU TIME=          1.3 (      0.0 MIN)
[...]

 OBTAINING GRADIENT FOR Z FIELD AT STRENGTH  0.002 AND Y FIELD AT -0.002


          --------------------------
                 RHF SCF CALCULATION
          --------------------------
     DENSITY MATRIX CONV=  2.00E-06

 DIRECT SCF CALCULATION, SCHWRZ=T   FDIFF=T,  DIRTHR=  0.00E+00 NITDIR=10

                                                                                                                   NONZERO     BLOCKS
 ITER EX DEM     TOTAL ENERGY        E CHANGE  DENSITY CHANGE     ORB. GRAD      VIR. SHIFT       DAMPING        INTEGRALS    SKIPPED
          ---------------START SECOND ORDER SCF---------------
   1  0  0      -76.0214877546   -76.0214877546   0.006593202   0.001341653     0.000000000     0.000000000          19819          0
   2  1  0      -76.0215084411    -0.0000206865   0.002867476   0.000382547     0.000000000     0.000000000          19819          0
   3  2  0      -76.0215104205    -0.0000019794   0.000243573   0.000072538     0.000000000     0.000000000          19819          0
   4  3  0      -76.0215104978    -0.0000000774   0.000098443   0.000028393     0.000000000     0.000000000          19819          0
   5  4  0      -76.0215105062    -0.0000000083   0.000038206   0.000011661     0.000000000     0.000000000          19819          0
   6  5  0      -76.0215105073    -0.0000000011   0.000005850   0.000002757     0.000000000     0.000000000          19819          0
   7  6  0      -76.0215105073    -0.0000000001   0.000002209   0.000000791     0.000000000     0.000000000          19819          0
   8  7  0      -76.0215105074    -0.0000000000   0.000000470   0.000000155     0.000000000     0.000000000          19819          0

          -----------------
          DENSITY CONVERGED
          -----------------
     TIME TO FORM FOCK OPERATORS=       0.0 SECONDS (       0.0 SEC/ITER)
     FOCK TIME ON FIRST ITERATION=       0.0, LAST ITERATION=       0.0
     TIME TO SOLVE SCF EQUATIONS=       0.0 SECONDS (       0.0 SEC/ITER)

 FINAL RHF ENERGY IS      -76.0215105074 AFTER   8 ITERATIONS
 ...... END OF RHF CALCULATION ......
 CPU     0: STEP CPU TIME=     0.06 TOTAL CPU TIME=          1.4 (      0.0 MIN)
 TOTAL WALL CLOCK TIME=          2.0 SECONDS, CPU UTILIZATION IS    70.35%
 ..... END OF 1-ELECTRON GRADIENT ......
 CPU     0: STEP CPU TIME=     0.02 TOTAL CPU TIME=          1.4 (      0.0 MIN)
 TOTAL WALL CLOCK TIME=          2.0 SECONDS, CPU UTILIZATION IS    71.00%
 ...... END OF 2-ELECTRON GRADIENT ......
 CPU     0: STEP CPU TIME=     0.00 TOTAL CPU TIME=          1.4 (      0.0 MIN)
 TOTAL WALL CLOCK TIME=          2.0 SECONDS, CPU UTILIZATION IS    71.00%
 ... DONE WITH GRADIENT ...
 CPU     0: STEP CPU TIME=     0.00 TOTAL CPU TIME=          1.4 (      0.0 MIN)
 TOTAL WALL CLOCK TIME=          2.0 SECONDS, CPU UTILIZATION IS    71.00%

 OBTAINING GRADIENT FOR Z FIELD AT STRENGTH -0.002 AND Y FIELD AT  0.002


          --------------------------
                 RHF SCF CALCULATION
          --------------------------
     DENSITY MATRIX CONV=  2.00E-06

 DIRECT SCF CALCULATION, SCHWRZ=T   FDIFF=T,  DIRTHR=  0.00E+00 NITDIR=10

                                                                                                                   NONZERO     BLOCKS
 ITER EX DEM     TOTAL ENERGY        E CHANGE  DENSITY CHANGE     ORB. GRAD      VIR. SHIFT       DAMPING        INTEGRALS    SKIPPED
          ---------------START SECOND ORDER SCF---------------
   1  0  0      -76.0210557621   -76.0210557621   0.006588726   0.001341653     0.000000000     0.000000000          19819          0
   2  1  0      -76.0210764526    -0.0000206905   0.002876347   0.000383869     0.000000000     0.000000000          19819          0
   3  2  0      -76.0210784415    -0.0000019889   0.000243672   0.000073225     0.000000000     0.000000000          19819          0
   4  3  0      -76.0210785194    -0.0000000779   0.000097467   0.000028636     0.000000000     0.000000000          19819          0
   5  4  0      -76.0210785277    -0.0000000083   0.000036638   0.000011723     0.000000000     0.000000000          19819          0
   6  5  0      -76.0210785287    -0.0000000010   0.000005646   0.000002753     0.000000000     0.000000000          19819          0
   7  6  0      -76.0210785287    -0.0000000001   0.000002110   0.000000800     0.000000000     0.000000000          19819          0
   8  7  0      -76.0210785288    -0.0000000000   0.000000456   0.000000147     0.000000000     0.000000000          19819          0

          -----------------
          DENSITY CONVERGED
          -----------------
     TIME TO FORM FOCK OPERATORS=       0.0 SECONDS (       0.0 SEC/ITER)
     FOCK TIME ON FIRST ITERATION=       0.0, LAST ITERATION=       0.0
     TIME TO SOLVE SCF EQUATIONS=       0.0 SECONDS (       0.0 SEC/ITER)

 FINAL RHF ENERGY IS      -76.0210785288 AFTER   8 ITERATIONS
 ...... END OF RHF CALCULATION ......
 CPU     0: STEP CPU TIME=     0.06 TOTAL CPU TIME=          1.5 (      0.0 MIN)
 TOTAL WALL CLOCK TIME=          2.1 SECONDS, CPU UTILIZATION IS    71.50%
 ..... END OF 1-ELECTRON GRADIENT ......
 CPU     0: STEP CPU TIME=     0.00 TOTAL CPU TIME=          1.5 (      0.0 MIN)
 TOTAL WALL CLOCK TIME=          2.1 SECONDS, CPU UTILIZATION IS    71.15%
 ...... END OF 2-ELECTRON GRADIENT ......
 CPU     0: STEP CPU TIME=     0.02 TOTAL CPU TIME=          1.5 (      0.0 MIN)
 TOTAL WALL CLOCK TIME=          2.1 SECONDS, CPU UTILIZATION IS    71.77%
 ... DONE WITH GRADIENT ...
 CPU     0: STEP CPU TIME=     0.00 TOTAL CPU TIME=          1.5 (      0.0 MIN)
 TOTAL WALL CLOCK TIME=          2.1 SECONDS, CPU UTILIZATION IS    71.77%

 OBTAINING GRADIENT FOR Z FIELD AT STRENGTH -0.002 AND Y FIELD AT -0.002


          --------------------------
                 RHF SCF CALCULATION
          --------------------------
     DENSITY MATRIX CONV=  2.00E-06

 DIRECT SCF CALCULATION, SCHWRZ=T   FDIFF=T,  DIRTHR=  0.00E+00 NITDIR=10

                                                                                                                   NONZERO     BLOCKS
 ITER EX DEM     TOTAL ENERGY        E CHANGE  DENSITY CHANGE     ORB. GRAD      VIR. SHIFT       DAMPING        INTEGRALS    SKIPPED
          ---------------START SECOND ORDER SCF---------------
   1  0  0      -76.0214877546   -76.0214877546   0.006593202   0.001341653     0.000000000     0.000000000          19819          0
   2  1  0      -76.0215084411    -0.0000206865   0.002867476   0.000382547     0.000000000     0.000000000          19819          0
   3  2  0      -76.0215104205    -0.0000019794   0.000243573   0.000072538     0.000000000     0.000000000          19819          0
   4  3  0      -76.0215104978    -0.0000000774   0.000098443   0.000028393     0.000000000     0.000000000          19819          0
   5  4  0      -76.0215105062    -0.0000000083   0.000038206   0.000011661     0.000000000     0.000000000          19819          0
   6  5  0      -76.0215105073    -0.0000000011   0.000005850   0.000002757     0.000000000     0.000000000          19819          0
   7  6  0      -76.0215105073    -0.0000000001   0.000002209   0.000000791     0.000000000     0.000000000          19819          0
   8  7  0      -76.0215105074    -0.0000000000   0.000000470   0.000000155     0.000000000     0.000000000          19819          0

          -----------------
          DENSITY CONVERGED
          -----------------
     TIME TO FORM FOCK OPERATORS=       0.0 SECONDS (       0.0 SEC/ITER)
     FOCK TIME ON FIRST ITERATION=       0.0, LAST ITERATION=       0.0
     TIME TO SOLVE SCF EQUATIONS=       0.0 SECONDS (       0.0 SEC/ITER)

 FINAL RHF ENERGY IS      -76.0215105074 AFTER   8 ITERATIONS
 ...... END OF RHF CALCULATION ......
 CPU     0: STEP CPU TIME=     0.05 TOTAL CPU TIME=          1.5 (      0.0 MIN)
 TOTAL WALL CLOCK TIME=          2.2 SECONDS, CPU UTILIZATION IS    72.09%
 ..... END OF 1-ELECTRON GRADIENT ......
 CPU     0: STEP CPU TIME=     0.01 TOTAL CPU TIME=          1.6 (      0.0 MIN)
 TOTAL WALL CLOCK TIME=          2.2 SECONDS, CPU UTILIZATION IS    72.22%
 ...... END OF 2-ELECTRON GRADIENT ......
 CPU     0: STEP CPU TIME=     0.00 TOTAL CPU TIME=          1.6 (      0.0 MIN)
 TOTAL WALL CLOCK TIME=          2.2 SECONDS, CPU UTILIZATION IS    71.89%
 ... DONE WITH GRADIENT ...
 CPU     0: STEP CPU TIME=     0.00 TOTAL CPU TIME=          1.6 (      0.0 MIN)
 TOTAL WALL CLOCK TIME=          2.2 SECONDS, CPU UTILIZATION IS    71.89%

 ..... DONE COMPUTING RAMAN DERIVATIVES .....
 CPU     0: STEP CPU TIME=     0.00 TOTAL CPU TIME=          1.6 (      0.0 MIN)
 TOTAL WALL CLOCK TIME=          2.2 SECONDS, CPU UTILIZATION IS    71.89%

          ---------------------------
          ZERO FIELD NUCLEAR GRADIENT
          ---------------------------

 UNITS ARE HARTREE/BOHR    E'X               E'Y               E'Z 
    1 O                0.000004660      -0.000002418       0.000000000
    2 H               -0.000003129      -0.000000928       0.000000000
    3 H               -0.000001531       0.000003346       0.000000000

          ------------------------          ----------------
          DIPOLE DERIVATIVE TENSOR          (DEBYE/ANGSTROM)
          ------------------------          ----------------

        ATOM                 MU-X           MU-Y           MU-Z
     O          D/DX    -2.420151228    0.075733945    0.000000000
                D/DY     0.075662345   -3.080376780    0.000000000
                D/DZ     0.000000000    0.000000000   -4.501794718
     H          D/DX     1.127320442    0.450448500    0.000000000
                D/DY     0.195695898    1.622950758    0.000000000
                D/DZ     0.000000000    0.000000000    2.250895893
     H          D/DX     1.292830786   -0.526182445    0.000000000
                D/DY    -0.271358243    1.457426021    0.000000000
                D/DZ     0.000000000    0.000000000    2.250898825

          ------------------------------------------
          ALPHA POLARIZABILITY TENSOR (ANGSTROMS**3)
          ------------------------------------------

                       X              Y              Z
          X         0.75825
          Y        -0.03048        1.02424
          Z         0.00000        0.00000        0.66224

          MEAN ALPHA POLARIZABILITY =         0.81491

          --------------------------------------     -------
          ALPHA POLARIZABILITY DERIVATIVE TENSOR     BOHR**2
          --------------------------------------     -------

   ATOM              ALP-XX    ALP-XY    ALP-YY    ALP-XZ    ALP-YZ    ALP-ZZ
 O          D/DX    5.18403  -0.47393   4.55649   0.00000   0.00000   0.69102
            D/DY   -0.48236   4.58713   1.57364   0.00000   0.00000   0.07308
            D/DZ    0.00000   0.00000   0.00000   0.60577   0.06753   0.00000
 H          D/DX   -3.27312   2.50621  -2.30104   0.00000   0.00000  -0.34035
            D/DY    1.67171  -2.40911   3.96531   0.00000   0.00000  -0.10098
            D/DZ    0.00000   0.00000   0.00000  -0.39798   0.80702   0.00000
 H          D/DX   -1.91091  -2.03228  -2.25545   0.00000   0.00000  -0.35067
            D/DY   -1.18935  -2.17802  -5.53895   0.00000   0.00000   0.02790
            D/DZ    0.00000   0.00000   0.00000  -0.20779  -0.87455   0.00000

          --------------------------------------------------------
          NORMAL COORDINATE ANALYSIS IN THE HARMONIC APPROXIMATION
          --------------------------------------------------------

          ATOMIC WEIGHTS (AMU)

    1     O                15.99491
    2     H                 1.00782
    3     H                 1.00782

 MODES    1 TO    6 ARE TAKEN AS ROTATIONS AND TRANSLATIONS.

 ANALYZING SYMMETRY OF NORMAL MODES...

     FREQUENCIES IN CM**-1, IR INTENSITIES IN DEBYE**2/AMU-ANGSTROM**2,
     REDUCED MASSES IN AMU.
     RAMAN INTENSITIES IN ANGSTROM**4/AMU, DEPOLARIZATIONS ARE DIMENSIONLESS

                            1           2           3           4           5
       FREQUENCY:        34.73       12.91        2.28        0.05        0.44  
        SYMMETRY:         A           A           A           A           A   
    REDUCED MASS:      1.04425     1.00870     8.61217     6.00399     5.90541
    IR INTENSITY:      3.46396     0.02021     0.11186     0.00000     0.00056
  RAMAN ACTIVITY:        0.908       2.335       0.004       0.000       0.000
  DEPOLARIZATION:        0.750       0.750       0.750       0.517       0.750

  1   O            X -0.00769430  0.00000097  0.00000650  0.13024854  0.19628251
                   Y  0.04762670 -0.00000256 -0.00000478  0.19636491 -0.12965362
                   Z  0.00000070 -0.00762930  0.24272585 -0.00000001 -0.00000797
  2   H            X -0.54424897  0.00002497  0.00001250  0.13021979  0.18945562
                   Y -0.42920525  0.00001846  0.00000056  0.19634295 -0.13571533
                   Z -0.00000714 -0.67967445  0.15328116 -0.00000005 -0.00000186
  3   H            X  0.62169789 -0.00002688 -0.00000055  0.13027172  0.20426130
                   Y -0.29726120  0.00001295 -0.00000092  0.19635061 -0.13403241
                   Z  0.00005411  0.72756760  0.18358590  0.00000005 -0.00000757

 TRANS. SAYVETZ    X -0.04501472  0.00001353  0.00011597  2.34584361  3.53631891
                   Y  0.02963373 -0.00000934 -0.00007675  3.53660540 -2.34565643
                   Z  0.00005846 -0.07376210  4.22188115 -0.00000014 -0.00013696
               TOTAL  0.05389329  0.07376210  4.22188115  4.24388501  4.24354281

   ROT. SAYVETZ    X -0.00009393 -2.05664829 -0.02882545 -0.00000015  0.00000766
                   Y  0.00003146 -0.17431090 -0.14047414 -0.00000000  0.00000687
                   Z  2.47917140 -0.00011017 -0.00002775  0.00010941  0.03148544
               TOTAL  2.47917140  2.06402192  0.14340115  0.00010941  0.03148544

                            6           7           8           9
       FREQUENCY:        22.79     1644.51     4163.59     4310.03  
        SYMMETRY:         A           A           A           A   
    REDUCED MASS:      1.06439     1.08538     1.04265     1.08692
    IR INTENSITY:     11.18938     2.82611     0.53986     2.35729
  RAMAN ACTIVITY:        0.342       4.397      74.640      36.968
  DEPOLARIZATION:        0.750       0.499       0.144       0.750

  1   O            X -0.00000002 -0.06861250 -0.04690930  0.00781157
                   Y -0.00000126 -0.00775874 -0.00527578 -0.06924101
                   Z -0.05954700 -0.00000000  0.00000000 -0.00000000
  2   H            X  0.00001606  0.49977638  0.43777554 -0.44917073
                   Y  0.00001301  0.45653741 -0.53590507  0.50539960
                   Z  0.71188713  0.00000001  0.00000021 -0.00000000
  3   H            X -0.00001887  0.58923113  0.30673620  0.32519790
                   Y  0.00000907 -0.33342168  0.61963054  0.59349917
                   Z  0.65511629 -0.00000001 -0.00000023  0.00000000

 TRANS. SAYVETZ    X -0.00000310  0.00007830  0.00002749  0.00000250
                   Y  0.00000205 -0.00002127 -0.00000503 -0.00000612
                   Z  0.42525130 -0.00000000  0.00000002  0.00000000
               TOTAL  0.42525130  0.00008114  0.00002795  0.00000661

   ROT. SAYVETZ    X -0.07055841  0.00000003  0.00000065 -0.00000001
                   Y  1.36438755  0.00000001  0.00000004  0.00000000
                   Z -0.00007426  0.00020574  0.00000797  0.00000545
               TOTAL  1.36621078  0.00020574  0.00000800  0.00000545

 REFERENCE ON SAYVETZ CONDITIONS - A. SAYVETZ, J.CHEM.PHYS., 7, 383-389(1939).

 NOTE - THE MODES J,K ARE ORTHONORMALIZED ACCORDING TO
 SUM ON I   M(I) * (X(I,J)*X(I,K) + Y(I,J)*Y(I,K) + Z(I,J)*Z(I,K)) = DELTA(J,K)

  MODE FREQ(CM**-1)  SYMMETRY  RED. MASS  IR INTENS.  RAMAN ACT.  DEPOLARIZ.
     1      34.725    A        1.044251    3.463963    0.908314    0.749999
     2      12.914    A        1.008705    0.020207    2.335290    0.750000
     3       2.285    A        8.612171    0.111856    0.004466    0.750000
     4       0.052    A        6.003991    0.000000    0.000000    0.516834
     5       0.439    A        5.905407    0.000559    0.000146    0.749950
     6      22.795    A        1.064389   11.189377    0.341697    0.750000
     7    1644.507    A        1.085383    2.826106    4.397287    0.499426
     8    4163.590    A        1.042645    0.539861   74.640025    0.144461
     9    4310.029    A        1.086917    2.357294   36.967593    0.749999

     -------------------------------
     THERMOCHEMISTRY AT T=  298.15 K
     -------------------------------

 USING IDEAL GAS, RIGID ROTOR, HARMONIC NORMAL MODE APPROXIMATIONS.
 P=  1.01325E+05 PASCAL.
 ALL FREQUENCIES ARE SCALED BY   1.00000
 THE MOMENTS OF INERTIA ARE (IN AMU*BOHR**2)
              1.88155             4.26573             6.14728
 THE ROTATIONAL SYMMETRY NUMBER IS  1.0
 THE ROTATIONAL CONSTANTS ARE (IN GHZ)
    958.29881   422.69149   293.31470
      7 -      9 VIBRATIONAL MODES ARE USED IN THERMOCHEMISTRY.
 THE HARMONIC ZERO POINT ENERGY IS (SCALED BY   1.000)
        0.023051 HARTREE/MOLECULE     5059.063084 CM**-1/MOLECULE 
       14.464602 KCAL/MOL               60.519894 KJ/MOL

               Q               LN Q
 ELEC.     1.00000E+00       0.000000
 TRANS.    3.00431E+06      14.915558
 ROT.      7.95129E+01       4.375920
 VIB.      1.00036E+00       0.000358
 TOT.      2.38967E+08      19.291835

              E         H         G         CV        CP        S
           KJ/MOL    KJ/MOL    KJ/MOL   J/MOL-K   J/MOL-K   J/MOL-K
 ELEC.      0.000     0.000     0.000     0.000     0.000     0.000
 TRANS.     3.718     6.197   -36.975    12.472    20.786   144.800
 ROT.       3.718     3.718   -10.848    12.472    12.472    48.855
 VIB.      60.527    60.527    60.519     0.187     0.187     0.027
 TOTAL     67.964    70.443    12.697    25.131    33.445   193.681
 VIB. THERMAL CORRECTION E(T)-E(0) = H(T)-H(0) =         7.039 J/MOL

              E         H         G         CV        CP        S
         KCAL/MOL  KCAL/MOL  KCAL/MOL CAL/MOL-K CAL/MOL-K CAL/MOL-K
 ELEC.      0.000     0.000     0.000     0.000     0.000     0.000
 TRANS.     0.889     1.481    -8.837     2.981     4.968    34.608
 ROT.       0.889     0.889    -2.593     2.981     2.981    11.677
 VIB.      14.466    14.466    14.464     0.045     0.045     0.006
 TOTAL     16.244    16.836     3.035     6.006     7.994    46.291
 VIB. THERMAL CORRECTION E(T)-E(0) = H(T)-H(0) =         1.682 CAL/MOL

 ..... DONE WITH NORMAL COORDINATE ANALYSIS .....
 CPU     0: STEP CPU TIME=     0.00 TOTAL CPU TIME=          1.6 (      0.0 MIN)
 TOTAL WALL CLOCK TIME=          2.2 SECONDS, CPU UTILIZATION IS    71.56%
                580000  WORDS OF DYNAMIC MEMORY USED
 EXECUTION OF GAMESS TERMINATED NORMALLY Wed Apr 24 12:16:27 2024
 DDI: 263640 bytes (0.3 MB / 0 MWords) used by master data server.

 ----------------------------------------
 CPU timing information for all processes
 ========================================
 0: 0.897 + 0.929 = 1.827
 1: 1.220 + 0.77 = 1.297
 2: 1.55 + 0.104 = 1.159
 3: 1.241 + 0.52 = 1.293
 4: 1.108 + 0.68 = 1.176
 5: 1.183 + 0.62 = 1.245
 6: 0.995 + 0.61 = 1.57
 7: 0.934 + 0.51 = 0.986
 8: 0.230 + 0.09 = 0.240
 9: 0.121 + 0.38 = 0.160
 10: 0.167 + 0.37 = 0.205
 11: 0.102 + 0.46 = 0.148
 12: 0.197 + 0.51 = 0.248
 13: 0.308 + 0.06 = 0.315
 14: 0.156 + 0.13 = 0.169
 15: 0.165 + 0.38 = 0.203
 ----------------------------------------
else
unset echo
----- accounting info -----
Files used on the master node acn219 were:
-rw-------. 1 lever046 lever046     2607 Apr 24 12:16 /tmp/gms_h2o_hf_nosmd_ram.F05
-rw-------. 1 lever046 lever046 62259200 Apr 24 12:16 /tmp/gms_h2o_hf_nosmd_ram.F10
-rw-------. 1 lever046 lever046        7 Apr 24 12:16 /tmp/gms_h2o_hf_nosmd_ram.nodes.mpd
ls: No match.
ls: No match.
ls: No match.
Wed Apr 24 12:16:30 CDT 2024
0.238u 0.175s 0:09.08 4.4%	0+0k 6440+560io 5pf+0w
