/home/lever046/lever046/psi4conda/etc/profile.d/conda.cshnconda: No such file or directory.
----- GAMESS execution script 'rungms' -----
This job is running on host cn0170
under operating system Linux at Wed Apr 24 12:36:29 CDT 2024
SLURM has assigned the following compute nodes to this run:
cn0170
Available scratch disk space (Kbyte units) at beginning of the job is
Filesystem           1K-blocks      Used Available Use% Mounted on
/dev/mapper/job_163405074_crypt
                       9982804     36892   9929528   1% /tmp
GAMESS temporary binary files will be written to /tmp
GAMESS supplementary output files will be written to /scratch.global/lever046/gamess/163405074
Copying input file gms_h2o_b3lyp_nosmd_uvv.inp to your run's scratch directory...
cp gms_h2o_b3lyp_nosmd_uvv.inp /tmp/gms_h2o_b3lyp_nosmd_uvv.F05
unset echo
setenv I_MPI_WAIT_MODE enable
setenv I_MPI_PIN disable
setenv I_MPI_DEBUG 0
setenv I_MPI_STATS 0
setenv I_MPI_DAT_LIBRARY libdat2.so
setenv I_MPI_SHM_LMT shm
unset echo
MPI kickoff will run GAMESS on 8 cores in 1 nodes.
The binary to be executed is /common/software/install/migrated/gamess/october_2019/gamess.00.x
MPI will run 8 compute processes and 8 data servers,
    placing 8 of each process type onto each node.
The scratch disk space on each node is /tmp, with free space
Filesystem           1K-blocks      Used Available Use% Mounted on
/dev/mapper/job_163405074_crypt
                       9982804     36904   9929516   1% /tmp
setenv I_MPI_HYDRA_ENV all
setenv I_MPI_PERHOST 16
unset echo
if ( impi == impi ) then
mpirun -hostfile /tmp/gms_h2o_b3lyp_nosmd_uvv.processes.mpd -np 16 /common/software/install/migrated/gamess/october_2019/gamess.00.x
srun: Job 163405074 step creation temporarily disabled, retrying (Requested nodes are busy)
srun: Step created for job 163405074
          ******************************************************
          *         GAMESS VERSION = 30 SEP 2019 (R2)          *
          *             FROM IOWA STATE UNIVERSITY             *
          * M.W.SCHMIDT, K.K.BALDRIDGE, J.A.BOATZ, S.T.ELBERT, *
          *   M.S.GORDON, J.H.JENSEN, S.KOSEKI, N.MATSUNAGA,   *
          *          K.A.NGUYEN, S.J.SU, T.L.WINDUS,           *
          *       TOGETHER WITH M.DUPUIS, J.A.MONTGOMERY       *
          *         J.COMPUT.CHEM.  14, 1347-1363(1993)        *
          **************** 64 BIT INTEL VERSION ****************

  SINCE 1993, STUDENTS AND POSTDOCS WORKING AT IOWA STATE UNIVERSITY
  AND ALSO IN THEIR VARIOUS JOBS AFTER LEAVING ISU HAVE MADE IMPORTANT
  CONTRIBUTIONS TO THE CODE:
     IVANA ADAMOVIC, CHRISTINE AIKENS, YURI ALEXEEV, POOJA ARORA,
     ANDREY ASADCHEV, ROB BELL, PRADIPTA BANDYOPADHYAY, JONATHAN BENTZ,
     COLLEEN BERTONI, BRETT BODE, KURT BRORSEN, CALEB CARLIN, GALINA CHABAN,
     WEI CHEN, CHEOL HO CHOI, PAUL DAY, ALBERT DEFUSCO, NUWAN DESILVA,
     TIM DUDLEY, DMITRI FEDOROV, ALEX FINDLATER, GRAHAM FLETCHER, 
     MARK FREITAG, KURT GLAESEMANN, EMILIE B GUIDEZ, ANASTASIA GUNINA, 
     DAN KEMP, SAROM SOK LEANG, GRANT MERRILL,
     NORIYUKI MINEZAWA, JONATHAN MULLIN,
     TAKESHI NAGATA, SEAN NEDD, HEATHER NETZLOFF, BOSILJKA NJEGIC, RYAN OLSON,
     MIKE PAK, BUU PHAM, DAVID POOLE,
     SPENCER PRUITT, LUKE ROSKOP, TOSAPORN SATTASATHUCHANA,
     JIM SHOEMAKER, LYUDMILA SLIPCHENKO,
     TONY SMITH, JIE SONG, TETSUYA TAKETSUGU, SIMON WEBB,
     JORGE LUIS GALVEZ VALLEJO, PENG XU, SOOHAENG YOO,
     FEDERICO ZAHARIEV

  ADDITIONAL CODE HAS BEEN PROVIDED BY COLLABORATORS IN OTHER GROUPS:
     IOWA STATE UNIVERSITY:
          JOE IVANIC, AARON WEST, LAIMUTIS BYTAUTAS, KLAUS RUEDENBERG
     UNIVERSITY OF TOKYO: KIMIHIKO HIRAO, TAKAHITO NAKAJIMA,
          TAKAO TSUNEDA, MUNEAKI KAMIYA, SUSUMU YANAGISAWA,
          KIYOSHI YAGI, MAHITO CHIBA, SEIKEN TOKURA, NAOAKI KAWAKAMI
     UNIVERSITY OF AARHUS: FRANK JENSEN
     UNIVERSITY OF IOWA: VISVALDAS KAIRYS, HUI LI
     NATIONAL INST. OF STANDARDS AND TECHNOLOGY: WALT STEVENS, DAVID GARMER
     UNIVERSITY OF PISA: BENEDETTA MENNUCCI, JACOPO TOMASI
     UNIVERSITY OF MEMPHIS: HENRY KURTZ, PRAKASHAN KORAMBATH
     UNIVERSITY OF ALBERTA: TOBY ZENG, MARIUSZ KLOBUKOWSKI
     UNIVERSITY OF NEW ENGLAND: MARK SPACKMAN
     MIE UNIVERSITY: HIROAKI UMEDA
     NAT. INST. OF ADVANCED INDUSTRIAL SCIENCE AND TECHNOLOGY: KAZUO KITAURA
     MICHIGAN STATE UNIVERSITY:
          KAROL KOWALSKI, MARTA WLOCH, JEFFREY GOUR, JESSE LUTZ,
          WEI LI, JUN SHEN, J. EMILIANO DEUSTUA, PIOTR PIECUCH
     UNIVERSITY OF MINNESOTA:
          ANDREW SAND, PRACHI SHARMA, YINAN SHU
     UNIVERSITY OF SILESIA: MONIKA MUSIAL, STANISLAW KUCHARSKI
     FACULTES UNIVERSITAIRES NOTRE-DAME DE LA PAIX:
          OLIVIER QUINET, BENOIT CHAMPAGNE
     UNIVERSITY OF CALIFORNIA - SANTA BARBARA: BERNARD KIRTMAN
     INSTITUTE FOR MOLECULAR SCIENCE:
          KAZUYA ISHIMURA, MICHIO KATOUDA, AND SHIGERU NAGASE
     UNIVERSITY OF NOTRE DAME: ANNA POMOGAEVA, DAN CHIPMAN
     KYUSHU UNIVERSITY:
          HARUYUKI NAKANO,
          FENG LONG GU, JACEK KORCHOWIEC, MARCIN MAKOWSKI, AND YURIKO AOKI,
          HIROTOSHI MORI AND EISAKU MIYOSHI
     PENNSYLVANIA STATE UNIVERSITY:
          TZVETELIN IORDANOV, CHET SWALINA, JONATHAN SKONE,
          SHARON HAMMES-SCHIFFER
     WASEDA UNIVERSITY:
          MASATO KOBAYASHI, TOMOKO AKAMA, TSUGUKI TOUMA,
          TAKESHI YOSHIKAWA, YASUHIRO IKABATA, JUNJI SEINO,
          YUYA NAKAJIMA, HIROMI NAKAI
     NANJING UNIVERSITY: SHUHUA LI
     UNIVERSITY OF NEBRASKA:
          PEIFENG SU, DEJUN SI, NANDUN THELLAMUREGE, YALI WANG, HUI LI
     UNIVERSITY OF ZURICH: ROBERTO PEVERATI, KIM BALDRIDGE
     N. COPERNICUS UNIVERSITY AND JACKSON STATE UNIVERSITY:
          MARIA BARYSZ
     UNIVERSITY OF COPENHAGEN: Jimmy Kromann, CASPER STEINMANN
     TOKYO INSTITUTE OF TECHNOLOGY: HIROYA NAKATA
     NAGOYA UNIVERSITY: YOSHIO NISHIMOTO, STEPHAN IRLE
     MOSCOW STATE UNIVERSITY: VLADIMIR MIRONOV
     A.N.NESMEYANOV INSTITUTE OF ORGANOELEMENT COMPOUNDS OF RUSSIAN ACADEMY OF SCIENCES:
          IGOR S. GERASIMOV
     JOHANNES KEPLER UNIVERSITY LINZ:
          CHRISTIAN FRIEDL


 PARALLEL VERSION RUNNING ON        8 PROCESSORS IN        1 NODES.

 EXECUTION OF GAMESS BEGUN Wed Apr 24 12:36:36 2024

            ECHO OF THE FIRST FEW INPUT CARDS -
 INPUT CARD> $BASIS GBASIS=N31 NGAUSS=6 NPFUNC=1 DIFFSP=.t. $END                            
 INPUT CARD> $CONTRL SCFTYP=RHF RUNTYP=ENERGY ICHARG=0 MULT=1 MAXIT=200 $END                
 INPUT CARD> $CONTRL DFTTYP=B3LYP TDDFT=EXCITE $END                                         
 INPUT CARD> $TDDFT NSTATE=10 $END                                                          
 INPUT CARD> $FORCE METHOD=SEMINUM $END                                                     
 INPUT CARD> $SCF DIRSCF=.t. DAMP=.t. $END                                                  
 INPUT CARD> $SYSTEM MWORDS=100 $END                                                        
 INPUT CARD> $DATA                                                                          
 INPUT CARD> Title                                                                          
 INPUT CARD> C1                                                                             
 INPUT CARD> O           8.0  -0.1422831649  -0.1033009247  -0.0000000000                   
 INPUT CARD> H           1.0  -0.8033894329   0.6002287619   0.0000000000                   
 INPUT CARD> H           1.0  -0.6073714722  -0.9492950531   0.0000000000                   
 INPUT CARD> $END                                                                           
 INPUT CARD>                                                                                
 INPUT CARD>                                                                                
  100000000 WORDS OF MEMORY AVAILABLE

     BASIS OPTIONS
     -------------
     GBASIS=N31          IGAUSS=       6      POLAR=POPN31  
     NDFUNC=       0     NFFUNC=       0     DIFFSP=       T
     NPFUNC=       1      DIFFS=       F     BASNAM=        


     RUN TITLE
     ---------
  Title                                                                          

 THE POINT GROUP OF THE MOLECULE IS C1      
 THE ORDER OF THE PRINCIPAL AXIS IS     0

 ATOM      ATOMIC                      COORDINATES (BOHR)
           CHARGE         X                   Y                   Z
 O           8.0    -0.2688761943       -0.1952104420        0.0000000000
 H           1.0    -1.5181858896        1.1342678899        0.0000000000
 H           1.0    -1.1477656552       -1.7939075319        0.0000000000

          INTERNUCLEAR DISTANCES (ANGS.)
          ------------------------------

                1 O          2 H          3 H     

   1 O       0.0000000    0.9654095 *  0.9654083 *
   2 H       0.9654095 *  0.0000000    1.5618729 *
   3 H       0.9654083 *  1.5618729 *  0.0000000  

  * ... LESS THAN  3.000


     ATOMIC BASIS SET
     ----------------
 THE CONTRACTED PRIMITIVE FUNCTIONS HAVE BEEN UNNORMALIZED
 THE CONTRACTED BASIS FUNCTIONS ARE NOW NORMALIZED TO UNITY

  SHELL TYPE  PRIMITIVE        EXPONENT          CONTRACTION COEFFICIENT(S)

 O         

      1   S       1          5484.6716600    0.001831074430
      1   S       2           825.2349460    0.013950172200
      1   S       3           188.0469580    0.068445078098
      1   S       4            52.9645000    0.232714335992
      1   S       5            16.8975704    0.470192897984
      1   S       6             5.7996353    0.358520852987

      2   L       7            15.5396162   -0.110777549525    0.070874268231
      2   L       8             3.5999336   -0.148026262701    0.339752839147
      2   L       9             1.0137618    1.130767015354    0.727158577316

      3   L      10             0.2700058    1.000000000000    1.000000000000

      4   L      11             0.0845000    1.000000000000    1.000000000000

 H         

      5   S      12            18.7311370    0.033494604338
      5   S      13             2.8253944    0.234726953484
      5   S      14             0.6401217    0.813757326146

      6   S      15             0.1612778    1.000000000000

      7   P      16             1.1000000    1.000000000000

 H         

      8   S      17            18.7311370    0.033494604338
      8   S      18             2.8253944    0.234726953484
      8   S      19             0.6401217    0.813757326146

      9   S      20             0.1612778    1.000000000000

     10   P      21             1.1000000    1.000000000000

 TOTAL NUMBER OF BASIS SET SHELLS             =   10
 NUMBER OF CARTESIAN GAUSSIAN BASIS FUNCTIONS =   23
 NUMBER OF ELECTRONS                          =   10
 CHARGE OF MOLECULE                           =    0
 SPIN MULTIPLICITY                            =    1
 NUMBER OF OCCUPIED ORBITALS (ALPHA)          =    5
 NUMBER OF OCCUPIED ORBITALS (BETA )          =    5
 TOTAL NUMBER OF ATOMS                        =    3
 THE NUCLEAR REPULSION ENERGY IS        9.1090164418

 SELECTED MURRAY-HANDY-LAMING RADIAL GRID

 LEGACY BECKE'S FUZZY CELL METHOD

 SELECTED ORIGINAL BECKE'S PARTITION FUNCTION

     LEBEDEV GRID-BASED DFT OPTIONS
     ------------------------------
     DFTTYP=B3LYP   
     NRAD  =      96     NLEB  =     302
     NRAD0 =      24     NLEB0 =     110
     SWOFF =    5.00E-03 (PURE SCF -> DFT)
     SWITCH=    3.00E-04 (COARSE -> TIGHT GRID)
     THRESH=    0.00E+00 GTHRE=    1.00E+00

 GRIMME'S EMPIRICAL DISPERSION CORRECTION= F

     $CONTRL OPTIONS
     ---------------
 SCFTYP=RHF          RUNTYP=ENERGY       EXETYP=RUN     
 MPLEVL=       0     CITYP =NONE         CCTYP =NONE         VBTYP =NONE    
 DFTTYP=B3LYP        TDDFT =EXCITE  
 MULT  =       1     ICHARG=       0     NZVAR =       0     COORD =UNIQUE  
 PP    =NONE         RELWFN=NONE         LOCAL =NONE         NUMGRD=       F
 ISPHER=      -1     NOSYM =       0     MAXIT =     200     UNITS =ANGS    
 PLTORB=       F     MOLPLT=       F     AIMPAC=       F     FRIEND=        
 NPRINT=       7     IREST =       0     GEOM  =INPUT   
 NORMF =       0     NORMP =       0     ITOL  =      20     ICUT  =       9
 INTTYP=BEST         GRDTYP=BEST         QMTTOL= 1.0E-06

     $SYSTEM OPTIONS
     ---------------
  REPLICATED MEMORY=   100000000 WORDS (ON EVERY NODE).
 DISTRIBUTED MEMDDI=           0 MILLION WORDS IN AGGREGATE,
 MEMDDI DISTRIBUTED OVER   8 PROCESSORS IS           0 WORDS/PROCESSOR.
 TOTAL MEMORY REQUESTED ON EACH PROCESSOR=   100000000 WORDS.
 TIMLIM=      525600.00 MINUTES, OR     365.0 DAYS.
 PARALL= T  BALTYP=  DLB     KDIAG=    0  COREFL= F
 MXSEQ2=     300 MXSEQ3=     150  mem10=         0

          ----------------
          PROPERTIES INPUT
          ----------------

     MOMENTS            FIELD           POTENTIAL          DENSITY
 IEMOM =       1   IEFLD =       0   IEPOT =       0   IEDEN =       0
 WHERE =COMASS     WHERE =NUCLEI     WHERE =NUCLEI     WHERE =NUCLEI  
 OUTPUT=BOTH       OUTPUT=BOTH       OUTPUT=BOTH       OUTPUT=BOTH    
 IEMINT=       0   IEFINT=       0                     IEDINT=       0
                                                       MORB  =       0
          EXTRAPOLATION IN EFFECT
          DAMPING IN EFFECT
          DIIS IN EFFECT
 ORBITAL PRINTING OPTION: NPREO=     1    23     2     1

     -------------------------------
     INTEGRAL TRANSFORMATION OPTIONS
     -------------------------------
     NWORD  =            0
     CUTOFF = 1.0E-09     MPTRAN =       0
     DIRTRF =       T     AOINTS =DUP     

          ----------------------
          INTEGRAL INPUT OPTIONS
          ----------------------
 NOPK  =       1 NORDER=       0 SCHWRZ=       T

          ----------------------
          TDDFT INPUT PARAMETERS
          ----------------------
 NSTATE=      10 IROOT =       1 MULT  =       1
 MAXVEC=      50 NTRIAL=       5 CNVTOL=  1.00E-07
 TDPRP =       F TRNSD =       F TAMMD =       F
 TPA   =       F ALPHA =       F BETA  =       F
 PFREQ =    0.00    0.00
   NRAD=      48   NLEB=     110

     ------------------------------------------
     THE POINT GROUP IS C1 , NAXIS= 0, ORDER= 1
     ------------------------------------------

     DIMENSIONS OF THE SYMMETRY SUBSPACES ARE
 A   =   23

 ..... DONE SETTING UP THE RUN .....
 CPU     0: STEP CPU TIME=     0.05 TOTAL CPU TIME=          0.1 (      0.0 MIN)
 TOTAL WALL CLOCK TIME=          0.1 SECONDS, CPU UTILIZATION IS    71.43%

          ********************
          1 ELECTRON INTEGRALS
          ********************
 ...... END OF ONE-ELECTRON INTEGRALS ......
 CPU     0: STEP CPU TIME=     0.01 TOTAL CPU TIME=          0.1 (      0.0 MIN)
 TOTAL WALL CLOCK TIME=          0.1 SECONDS, CPU UTILIZATION IS    75.00%

          -------------
          GUESS OPTIONS
          -------------
          GUESS =HUCKEL            NORB  =       0          NORDER=       0
          MIX   =       F          PRTMO =       F          PUNMO =       F
          TOLZ  = 1.0E-08          TOLE  = 1.0E-05
          SYMDEN=       F          PURIFY=       F

 INITIAL GUESS ORBITALS GENERATED BY HUCKEL   ROUTINE.
 HUCKEL GUESS REQUIRES      6316 WORDS.

 SYMMETRIES FOR INITIAL GUESS ORBITALS FOLLOW.   BOTH SET(S).
     5 ORBITALS ARE OCCUPIED (    1 CORE ORBITALS).
     2=A        3=A        4=A        5=A        6=A        7=A        8=A   
     9=A       10=A       11=A       12=A       13=A       14=A       15=A   
 ...... END OF INITIAL ORBITAL SELECTION ......
 CPU     0: STEP CPU TIME=     0.02 TOTAL CPU TIME=          0.1 (      0.0 MIN)
 TOTAL WALL CLOCK TIME=          0.1 SECONDS, CPU UTILIZATION IS    80.00%

                    ----------------------
                    AO INTEGRAL TECHNOLOGY
                    ----------------------
     S,P,L SHELL ROTATED AXIS INTEGRALS, REPROGRAMMED BY
        KAZUYA ISHIMURA (IMS) AND JOSE SIERRA (SYNSTAR).
     S,P,D,L SHELL ROTATED AXIS INTEGRALS PROGRAMMED BY
        KAZUYA ISHIMURA (INSTITUTE FOR MOLECULAR SCIENCE).
     S,P,D,F,G SHELL TO TOTAL QUARTET ANGULAR MOMENTUM SUM 5,
        ERIC PROGRAM BY GRAHAM FLETCHER (ELORET AND NASA ADVANCED
        SUPERCOMPUTING DIVISION, AMES RESEARCH CENTER).
     S,P,D,F,G,L SHELL GENERAL RYS QUADRATURE PROGRAMMED BY
        MICHEL DUPUIS (PACIFIC NORTHWEST NATIONAL LABORATORY).

          --------------------
          2 ELECTRON INTEGRALS
          --------------------

 DIRECT SCF METHOD SKIPS INTEGRAL STORAGE ON DISK.
 DIRECT TRANSFORMATION SKIPS AO INTEGRAL STORAGE ON DISK.
  ...... END OF TWO-ELECTRON INTEGRALS .....
 CPU     0: STEP CPU TIME=     0.00 TOTAL CPU TIME=          0.1 (      0.0 MIN)
 TOTAL WALL CLOCK TIME=          0.1 SECONDS, CPU UTILIZATION IS    72.73%

          --------------------------
             R-B3LYP SCF CALCULATION
          --------------------------

     NUCLEAR ENERGY =         9.1090164418
     MAXIT =  200     NPUNCH=    2
     EXTRAP=T  DAMP=T  SHIFT=F  RSTRCT=F  DIIS=T  DEM=F  SOSCF=F
         DENSITY MATRIX CONVERGENCE THRESHOLD=  2.00E-06
     COARSE -> FINE DFT GRID SWITCH THRESHOLD=  3.00E-04 (SWITCH IN $DFT)
                   HF -> DFT SWITCH THRESHOLD=  5.00E-03 (SWOFF IN $DFT)
     MEMORY REQUIRED FOR RHF ITERS=    202759 WORDS.

 DIRECT SCF CALCULATION, SCHWRZ=T   FDIFF=T,  DIRTHR=  0.00E+00 NITDIR=10
 SCHWARZ INEQUALITY OVERHEAD:       276 INTEGRALS, T=        0.01

 DFT CODE IS SWITCHING FROM THE FINE GRID NRAD= 96,  NLEB=  302
                      TO THE COARSE GRID NRAD0= 24, NLEB0=  110

     EXCHANGE FUNCTIONAL   =B88&HFX   
     CORRELATION FUNCTIONAL=LYP88&VWN5
     DFT THRESHOLD         =.460E-07
     GRID CHANGE THRESHOLD =.300E-03
 FOR AN EULER-MACLAURIN QUADRATURE USING  96 RADIAL POINTS:
 SMALLEST GAUSSIAN PRIMITIVE EXPONENT=        0.0845000000 OF TYPE -P-
 ON ATOM NUMBER   1 HAS RADIAL NORMALIZATION=  1.000000
  LARGEST GAUSSIAN PRIMITIVE EXPONENT=     5484.6716600000 OF TYPE -S-
 ON ATOM NUMBER   1 HAS RADIAL NORMALIZATION=  1.000000
 DFT IS SWITCHED OFF, PERFORMING PURE SCF UNTIL SWOFF THRESHOLD IS REACHED.

                                                                                                                   NONZERO     BLOCKS
 ITER EX DEM     TOTAL ENERGY        E CHANGE  DENSITY CHANGE    DIIS ERROR      VIR. SHIFT       DAMPING        INTEGRALS    SKIPPED
   1  0  0      -75.7648428562   -75.7648428562   0.187749039   0.708762873     0.000000000     1.000000000          19819          0
          * * *   INITIATING DIIS PROCEDURE   * * *
   2  1  0      -76.0035966904    -0.2387538342   0.052964577   0.099181588     0.000000000     1.000000000          19819          0
   3  2  0      -76.0181200159    -0.0145233256   0.028288288   0.031125312     0.000000000     1.000000000          19819          0
   4  3  0      -76.0198601871    -0.0017401712   0.010403130   0.011836954     0.000000000     1.000000000          19819          0
   5  4  0      -76.0200491169    -0.0001889298   0.003598443   0.004140976     0.000000000     1.000000000          19819          0
 CONVERGED TO SWOFF, SO DFT CALCULATION IS NOW SWITCHED ON.
          * * *   INITIATING DIIS PROCEDURE   * * *
   6  5  0      -76.3824331371    -0.3623840202   0.055074248   0.061062388          19819          0
   7  6  0      -76.3872149145    -0.0047817774   0.007673346   0.005069977          19819          0
   8  7  0      -76.3871946203     0.0000202942   0.003815191   0.006015492          19819          0
   9  8  0      -76.3872405094    -0.0000458891   0.000465373   0.000654054          19819          0
  10  9  0      -76.3872411485    -0.0000006391   0.000022172   0.000031747          19819          0
 DFT CODE IS SWITCHING BACK TO THE FINE GRID
          * * *   INITIATING DIIS PROCEDURE   * * *
  11 10  0      -76.3868895841     0.0003515644   0.000407514   0.000673344          19819          0
  12 11  0      -76.3868898821    -0.0000002980   0.000127637   0.000092477          19819          0
  13 12  0      -76.3868898738     0.0000000083   0.000071147   0.000119578          19819          0
  14 13  0      -76.3868898923    -0.0000000184   0.000004227   0.000005687          19819          0
  15 14  0      -76.3868898923    -0.0000000000   0.000000273   0.000000389          19819          0
  16 15  0      -76.3868898923     0.0000000000   0.000000037   0.000000043          19792          2

          -----------------
          DENSITY CONVERGED
          -----------------
     TIME TO FORM FOCK OPERATORS=       0.2 SECONDS (       0.0 SEC/ITER)
     FOCK TIME ON FIRST ITERATION=       0.0, LAST ITERATION=       0.0
     TIME TO SOLVE SCF EQUATIONS=       0.1 SECONDS (       0.0 SEC/ITER)

 FINAL R-B3LYP ENERGY IS      -76.3868898923 AFTER  16 ITERATIONS
 DFT EXCHANGE + CORRELATION ENERGY =        -7.4980400003
 TOTAL ELECTRON NUMBER             =         9.9999985453

          ------------
          EIGENVECTORS
          ------------

                      1          2          3          4          5
                  -19.1647    -1.0265    -0.5474    -0.3784    -0.3183
                     A          A          A          A          A   
    1  O  1  S    0.994949  -0.210107  -0.000000  -0.081475   0.000000
    2  O  1  S    0.028352   0.472359   0.000001   0.190630   0.000000
    3  O  1  X   -0.002279  -0.128097  -0.064518   0.555199   0.000000
    4  O  1  Y   -0.000288  -0.016205   0.510022   0.070233   0.000000
    5  O  1  Z    0.000000   0.000000   0.000000   0.000000   0.644569
    6  O  1  S   -0.011370   0.413551  -0.000003   0.312394   0.000000
    7  O  1  X    0.000727  -0.045318  -0.026750   0.317478   0.000000
    8  O  1  Y    0.000092  -0.005732   0.211475   0.040160   0.000000
    9  O  1  Z    0.000000   0.000000   0.000000   0.000000   0.415903
   10  O  1  S    0.001842   0.022380  -0.000008   0.054857   0.000000
   11  O  1  X    0.000648  -0.010863  -0.001481   0.086581   0.000000
   12  O  1  Y    0.000082  -0.001374   0.011732   0.010952   0.000000
   13  O  1  Z    0.000000   0.000000   0.000000   0.000000   0.129510
   14  H  2  S   -0.000417   0.155398   0.265911  -0.142315   0.000000
   15  H  2  S    0.001385   0.000692   0.149323  -0.100254   0.000000
   16  H  2  X   -0.001068   0.014823   0.023775   0.012302   0.000000
   17  H  2  Y    0.001171  -0.021652  -0.015398   0.019911   0.000000
   18  H  2  Z    0.000000   0.000000   0.000000   0.000000   0.027073
   19  H  3  S   -0.000417   0.155399  -0.265910  -0.142315   0.000000
   20  H  3  S    0.001385   0.000694  -0.149309  -0.100257   0.000000
   21  H  3  X   -0.000743   0.008965  -0.019191   0.016872   0.000000
   22  H  3  Y   -0.001400   0.024661  -0.020833  -0.016221   0.000000
   23  H  3  Z    0.000000   0.000000   0.000000   0.000000   0.027073

                      6          7          8          9         10
                    0.0264     0.1156     0.1572     0.1628     0.2112
                     A          A          A          A          A   
    1  O  1  S    0.079793   0.000001   0.000000   0.051645   0.000002
    2  O  1  S   -0.149035  -0.000001   0.000000  -0.089547  -0.000001
    3  O  1  X    0.233432   0.042528   0.000000  -0.171741  -0.030338
    4  O  1  Y    0.029530  -0.336174   0.000000  -0.021723   0.239915
    5  O  1  Z    0.000000   0.000000  -0.272769   0.000000   0.000000
    6  O  1  S   -0.835812  -0.000014   0.000000  -0.597605  -0.000036
    7  O  1  X    0.229736   0.070573   0.000000  -0.295626  -0.069589
    8  O  1  Y    0.029065  -0.557834   0.000000  -0.037391   0.550360
    9  O  1  Z    0.000000   0.000000  -0.466062   0.000000   0.000000
   10  O  1  S    1.277138  -0.000028   0.000000  -0.013712  -0.000152
   11  O  1  X   -0.467595  -0.117281   0.000000   1.316579  -0.199020
   12  O  1  Y   -0.059153   0.927231   0.000000   0.166554   1.573577
   13  O  1  Z    0.000000   0.000000   1.200239   0.000000   0.000000
   14  H  2  S    0.086221   0.053040   0.000000   0.042103  -0.167079
   15  H  2  S    0.023384   0.315200   0.000000   0.509011  -1.907589
   16  H  2  X   -0.007093  -0.009505   0.000000   0.008486   0.006927
   17  H  2  Y    0.014093   0.010547   0.000000   0.002059   0.015652
   18  H  2  Z    0.000000   0.000000   0.005975   0.000000   0.000000
   19  H  3  S    0.086222  -0.053037   0.000000   0.042105   0.167094
   20  H  3  S    0.023390  -0.315148   0.000000   0.509038   1.907805
   21  H  3  X   -0.003360   0.006579   0.000000   0.008732  -0.010604
   22  H  3  Y   -0.015415   0.012582   0.000000   0.000118   0.013438
   23  H  3  Z    0.000000   0.000000   0.005975   0.000000   0.000000

                     11         12         13         14         15
                    0.2376     0.9699     1.0128     1.1153     1.1195
                     A          A          A          A          A   
    1  O  1  S   -0.041261  -0.000001  -0.028456   0.000000   0.000001
    2  O  1  S    0.061155   0.000023   0.548382   0.000000  -0.000000
    3  O  1  X   -0.236794   0.100485  -0.745668   0.000000   0.050696
    4  O  1  Y   -0.029944  -0.794563  -0.094299   0.000000  -0.400830
    5  O  1  Z    0.000000   0.000000   0.000000  -0.971627   0.000000
    6  O  1  S    0.736440  -0.000055  -1.331999   0.000000  -0.000009
    7  O  1  X   -0.604212  -0.133160   1.209770   0.000000  -0.183774
    8  O  1  Y   -0.076415   1.053014   0.152994   0.000000   1.452948
    9  O  1  Z    0.000000   0.000000   0.000000   1.442449   0.000000
   10  O  1  S    3.293204  -0.000051  -1.686808   0.000000   0.000010
   11  O  1  X   -1.009690  -0.062865   0.295930   0.000000   0.136011
   12  O  1  Y   -0.127650   0.497001   0.037417   0.000000  -1.075285
   13  O  1  Z    0.000000   0.000000   0.000000  -0.700468   0.000000
   14  H  2  S   -0.176852   0.603081  -0.480671   0.000000  -0.878267
   15  H  2  S   -2.365265  -1.655692   1.874300   0.000000   0.885577
   16  H  2  X   -0.014857  -0.098156   0.098897   0.000000  -0.015432
   17  H  2  Y    0.000247   0.059062  -0.114245   0.000000   0.139054
   18  H  2  Z    0.000000   0.000000   0.000000   0.023969   0.000000
   19  H  3  S   -0.176835  -0.603108  -0.480633   0.000000   0.878299
   20  H  3  S   -2.365113   1.655815   1.874181   0.000000  -0.885598
   21  H  3  X   -0.014328   0.080364   0.067326   0.000000  -0.019677
   22  H  3  Y   -0.003934   0.081657   0.135263   0.000000   0.138518
   23  H  3  Z    0.000000   0.000000   0.000000   0.023968   0.000000

                     16         17         18         19         20
                    1.1708     1.4389     1.9101     2.0905     2.1888
                     A          A          A          A          A   
    1  O  1  S   -0.056551   0.044213   0.000000  -0.000378   0.000000
    2  O  1  S    0.296309  -1.566180   0.000000   0.405857   0.000000
    3  O  1  X    0.497642  -0.241529   0.000000  -0.113665   0.000000
    4  O  1  Y    0.062943  -0.030556   0.000000  -0.014381   0.000000
    5  O  1  Z    0.000000   0.000000  -0.000000   0.000000   0.031155
    6  O  1  S   -0.218934   2.630515   0.000000  -0.749350   0.000000
    7  O  1  X   -1.154653  -0.029567   0.000000   0.811831   0.000000
    8  O  1  Y   -0.146038  -0.003735   0.000000   0.102702   0.000000
    9  O  1  Z    0.000000   0.000000  -0.000001   0.000000  -0.562202
   10  O  1  S   -1.085048  -1.016985   0.000000   0.008927   0.000000
   11  O  1  X    0.983687  -0.047009   0.000000  -0.108774   0.000000
   12  O  1  Y    0.124420  -0.005947   0.000000  -0.013762   0.000000
   13  O  1  Z    0.000000   0.000000   0.000000   0.000000   0.118990
   14  H  2  S   -0.862077  -0.507065   0.000000   0.371875   0.000000
   15  H  2  S    1.165987   0.078315   0.000000   0.085565   0.000000
   16  H  2  X   -0.093718  -0.164795   0.000000  -0.576583   0.000000
   17  H  2  Y   -0.064357   0.000401   0.000000  -0.438575   0.000000
   18  H  2  Z    0.000000   0.000000  -0.710060   0.000000   0.765033
   19  H  3  S   -0.862050  -0.507065   0.000000   0.371878   0.000000
   20  H  3  S    1.165966   0.078320   0.000000   0.085562   0.000000
   21  H  3  X   -0.106793  -0.159505   0.000000  -0.667624   0.000000
   22  H  3  Y    0.038999  -0.041420   0.000000   0.281168   0.000000
   23  H  3  Z    0.000000   0.000000   0.710061   0.000000   0.765032

                     21         22         23
                    2.2211     2.7194     2.9067
                     A          A          A   
    1  O  1  S    0.000000  -0.000001  -0.084996
    2  O  1  S   -0.000009   0.000005   0.429059
    3  O  1  X    0.012584  -0.084956  -0.483628
    4  O  1  Y   -0.099451   0.671547  -0.061188
    5  O  1  Z    0.000000   0.000000   0.000000
    6  O  1  S    0.000010  -0.000001   0.989662
    7  O  1  X   -0.082814  -0.028114  -0.456437
    8  O  1  Y    0.654582   0.222252  -0.057735
    9  O  1  Z    0.000000   0.000000   0.000000
   10  O  1  S   -0.000001  -0.000003   0.524927
   11  O  1  X    0.017817  -0.032167  -0.148521
   12  O  1  Y   -0.140836   0.254290  -0.018788
   13  O  1  Z    0.000000   0.000000   0.000000
   14  H  2  S   -0.281801  -0.078749  -0.323245
   15  H  2  S    0.041331  -0.654628  -0.712134
   16  H  2  X   -0.497929  -0.673437  -0.518979
   17  H  2  Y   -0.551031   0.552264   0.790667
   18  H  2  Z    0.000000   0.000000   0.000000
   19  H  3  S    0.281793   0.078746  -0.323246
   20  H  3  S   -0.041331   0.654632  -0.712134
   21  H  3  X    0.619474   0.514693  -0.305743
   22  H  3  Y   -0.409678   0.702553  -0.895010
   23  H  3  Z    0.000000   0.000000   0.000000
 ...... END OF RHF CALCULATION ......
 CPU     0: STEP CPU TIME=     0.37 TOTAL CPU TIME=          0.4 (      0.0 MIN)
 TOTAL WALL CLOCK TIME=          0.6 SECONDS, CPU UTILIZATION IS    76.27%

     ---------------------------------------------------------------------
     PROPERTIES FOR THE B3LYP    DFT FUNCTIONAL (RHF  TYPE) DENSITY MATRIX
     ---------------------------------------------------------------------

          -----------------
          ENERGY COMPONENTS
          -----------------

         WAVEFUNCTION NORMALIZATION =       1.0000000000

                ONE ELECTRON ENERGY =    -122.7459836658
                TWO ELECTRON ENERGY =      37.2500773317
           NUCLEAR REPULSION ENERGY =       9.1090164418
                                      ------------------
                       TOTAL ENERGY =     -76.3868898923

 ELECTRON-ELECTRON POTENTIAL ENERGY =      37.2500773317
  NUCLEUS-ELECTRON POTENTIAL ENERGY =    -198.6236430427
   NUCLEUS-NUCLEUS POTENTIAL ENERGY =       9.1090164418
                                      ------------------
             TOTAL POTENTIAL ENERGY =    -152.2645492693
               TOTAL KINETIC ENERGY =      75.8776593770
                 VIRIAL RATIO (V/T) =       2.0067112048

          ---------------------------------------
          MULLIKEN AND LOWDIN POPULATION ANALYSES
          ---------------------------------------

     ATOMIC MULLIKEN POPULATION IN EACH MOLECULAR ORBITAL

                      1          2          3          4          5

                  2.000000   2.000000   2.000000   2.000000   2.000000

    1             2.000038   1.657158   1.197066   1.785832   1.972906
    2            -0.000019   0.171419   0.401473   0.107084   0.013547
    3            -0.000019   0.171423   0.401461   0.107084   0.013547

               ----- POPULATIONS IN EACH AO -----
                             MULLIKEN      LOWDIN
              1  O  1  S      1.99674     1.99292
              2  O  1  S      0.91761     0.81339
              3  O  1  X      0.95783     0.88525
              4  O  1  Y      0.82315     0.72421
              5  O  1  Z      1.13762     1.08133
              6  O  1  S      0.88466     0.63725
              7  O  1  X      0.54573     0.59656
              8  O  1  Y      0.36680     0.46245
              9  O  1  Z      0.69942     0.68397
             10  O  1  S      0.04164     0.11772
             11  O  1  X      0.09244     0.15314
             12  O  1  Y      0.01349     0.09410
             13  O  1  Z      0.13587     0.17534
             14  H  2  S      0.51602     0.46711
             15  H  2  S      0.12760     0.20550
             16  H  2  X      0.01789     0.04481
             17  H  2  Y      0.01845     0.04408
             18  H  2  Z      0.01355     0.02968
             19  H  3  S      0.51603     0.46711
             20  H  3  S      0.12759     0.20550
             21  H  3  X      0.01390     0.03189
             22  H  3  Y      0.02243     0.05700
             23  H  3  Z      0.01355     0.02968

          ----- MULLIKEN ATOMIC OVERLAP POPULATIONS -----
          (OFF-DIAGONAL ELEMENTS NEED TO BE MULTIPLIED BY 2)

             1           2           3

    1    8.0402367
    2    0.2863777   0.4428746
    3    0.2863855  -0.0357486   0.4428594

          TOTAL MULLIKEN AND LOWDIN ATOMIC POPULATIONS
       ATOM         MULL.POP.    CHARGE          LOW.POP.     CHARGE
    1 O             8.613000   -0.613000         8.417639   -0.417639
    2 H             0.693504    0.306496         0.791181    0.208819
    3 H             0.693496    0.306504         0.791180    0.208820

          -------------------------------
          BOND ORDER AND VALENCE ANALYSIS     BOND ORDER THRESHOLD=0.050
          -------------------------------

                   BOND                       BOND                       BOND
  ATOM PAIR DIST  ORDER      ATOM PAIR DIST  ORDER      ATOM PAIR DIST  ORDER
    1   2  0.965  0.891        1   3  0.965  0.891

                       TOTAL       BONDED        FREE
      ATOM            VALENCE     VALENCE     VALENCE
    1 O                 1.782       1.782      -0.000
    2 H                 0.897       0.897      -0.000
    3 H                 0.897       0.897      -0.000

          ---------------------
          ELECTROSTATIC MOMENTS
          ---------------------

 POINT   1           X           Y           Z (BOHR)    CHARGE
                -0.387965   -0.210275    0.000000        0.00 (A.U.)
         DX          DY          DZ         /D/  (DEBYE)
    -2.382104   -0.301348    0.000000    2.401090
 ...... END OF PROPERTY EVALUATION ......
 CPU     0: STEP CPU TIME=     0.03 TOTAL CPU TIME=          0.5 (      0.0 MIN)
 TOTAL WALL CLOCK TIME=          0.6 SECONDS, CPU UTILIZATION IS    77.42%

 -----------------------------------------------------------------------
                    TDDFT CALCULATION FOR SCFTYP=RHF 
                          CODED BY MAHITO CHIBA
 NATIONAL INSTITUTE OF ADVANCED INDUSTRIAL SCIENCE AND TECHNOLOGY, JAPAN
 -----------------------------------------------------------------------
  
 -TDDFT RUNTIME PARAMETERS-
    TRIPLET  = F
    NONEQ    = T
    NSTATE   =                    10
    IROOT    =                     1
    NTRIAL   =                     5
    MAXVEC   =                    50
    ILENG    =                   200
    MAXGRD   =                 15244
    NRAD     =                    48
    NLEB     =                   110
 GAS PHASE COMPUTATION
  
 FOR AN EULER-MACLAURIN QUADRATURE USING  48 RADIAL POINTS:
 SMALLEST GAUSSIAN PRIMITIVE EXPONENT=        0.0845000000 OF TYPE -P-
 ON ATOM NUMBER   1 HAS RADIAL NORMALIZATION=  0.999996
  LARGEST GAUSSIAN PRIMITIVE EXPONENT=     5484.6716600000 OF TYPE -S-
 ON ATOM NUMBER   1 HAS RADIAL NORMALIZATION=  1.000000
  
 MEM1  =      127771 MEM2  =        2246 MEMGRID=      170354
 MEMPCM=           0 MEMEFP=           0
 TOTAL MEMORY REQUIRED FOR TD-DFT ITERATIONS IS      300372 WORDS.

 INITIAL VECTORS / MXVEC                     10 /                    90
 ITERATION #                      1
    CURRENT VECTORS    1 TO  10 (  10 VECTORS)
    STATE NUMBER   1  ENERGY =    7.852663 EV
    STATE NUMBER   2  ENERGY =    9.744293 EV
    STATE NUMBER   3  ENERGY =   10.054903 EV
    STATE NUMBER   4  ENERGY =   11.636950 EV
    STATE NUMBER   5  ENERGY =   11.969814 EV
    STATE NUMBER   6  ENERGY =   12.322574 EV
    STATE NUMBER   7  ENERGY =   12.683961 EV
    STATE NUMBER   8  ENERGY =   13.064781 EV
    STATE NUMBER   9  ENERGY =   13.755947 EV
    STATE NUMBER  10  ENERGY =   15.438229 EV
    MAX ERROR =  2.345E-01 / 1.000E-07
 ITERATION #                      2
    CURRENT VECTORS   11 TO  30 (  20 VECTORS)
    STATE NUMBER   1  ENERGY =    7.834601 EV
    STATE NUMBER   2  ENERGY =    9.640853 EV
    STATE NUMBER   3  ENERGY =   10.034063 EV
    STATE NUMBER   4  ENERGY =   11.624782 EV
    STATE NUMBER   5  ENERGY =   11.907861 EV
    STATE NUMBER   6  ENERGY =   11.977966 EV
    STATE NUMBER   7  ENERGY =   12.672355 EV
    STATE NUMBER   8  ENERGY =   13.053322 EV
    STATE NUMBER   9  ENERGY =   13.704974 EV
    STATE NUMBER  10  ENERGY =   13.895414 EV
    MAX ERROR =  1.532E-03 / 1.000E-07
 ITERATION #                      3
    CURRENT VECTORS   31 TO  50 (  20 VECTORS)
    STATE NUMBER   1  ENERGY =    7.834578 EV
    STATE NUMBER   2  ENERGY =    9.639453 EV
    STATE NUMBER   3  ENERGY =   10.033996 EV
    STATE NUMBER   4  ENERGY =   11.624753 EV
    STATE NUMBER   5  ENERGY =   11.903877 EV
    STATE NUMBER   6  ENERGY =   11.975787 EV
    STATE NUMBER   7  ENERGY =   12.672347 EV
    STATE NUMBER   8  ENERGY =   13.053297 EV
    STATE NUMBER   9  ENERGY =   13.704805 EV
    STATE NUMBER  10  ENERGY =   13.883995 EV
    MAX ERROR =  7.132E-05 / 1.000E-07
 ITERATION #                      4
    CURRENT VECTORS   51 TO  58 (   8 VECTORS)
    STATE NUMBER   1  ENERGY =    7.834578 EV
    STATE NUMBER   2  ENERGY =    9.639445 EV
    STATE NUMBER   3  ENERGY =   10.033996 EV
    STATE NUMBER   4  ENERGY =   11.624753 EV
    STATE NUMBER   5  ENERGY =   11.903135 EV
    STATE NUMBER   6  ENERGY =   11.975762 EV
    STATE NUMBER   7  ENERGY =   12.672347 EV
    STATE NUMBER   8  ENERGY =   13.053297 EV
    STATE NUMBER   9  ENERGY =   13.704805 EV
    STATE NUMBER  10  ENERGY =   13.883664 EV
    MAX ERROR =  9.046E-06 / 1.000E-07
 ITERATION #                      5
    CURRENT VECTORS   59 TO  64 (   6 VECTORS)
    STATE NUMBER   1  ENERGY =    7.834578 EV
    STATE NUMBER   2  ENERGY =    9.639445 EV
    STATE NUMBER   3  ENERGY =   10.033996 EV
    STATE NUMBER   4  ENERGY =   11.624753 EV
    STATE NUMBER   5  ENERGY =   11.903093 EV
    STATE NUMBER   6  ENERGY =   11.975761 EV
    STATE NUMBER   7  ENERGY =   12.672347 EV
    STATE NUMBER   8  ENERGY =   13.053297 EV
    STATE NUMBER   9  ENERGY =   13.704805 EV
    STATE NUMBER  10  ENERGY =   13.883658 EV
    MAX ERROR =  5.819E-07 / 1.000E-07
 ITERATION #                      6
    CURRENT VECTORS   65 TO  66 (   2 VECTORS)
    STATE NUMBER   1  ENERGY =    7.834578 EV
    STATE NUMBER   2  ENERGY =    9.639445 EV
    STATE NUMBER   3  ENERGY =   10.033996 EV
    STATE NUMBER   4  ENERGY =   11.624753 EV
    STATE NUMBER   5  ENERGY =   11.903091 EV
    STATE NUMBER   6  ENERGY =   11.975761 EV
    STATE NUMBER   7  ENERGY =   12.672347 EV
    STATE NUMBER   8  ENERGY =   13.053297 EV
    STATE NUMBER   9  ENERGY =   13.704805 EV
    STATE NUMBER  10  ENERGY =   13.883658 EV
    MAX ERROR =  5.803E-08 / 1.000E-07
  
   ---------------------------------  
     R-TDDFT CALCULATION CONVERGED
   ---------------------------------  
 NUMBER OF USED VECTORS / MAX =  66 /  90
 NUMBER OF ITERATIONS   / MAX =   6 / 100
 NUMBER OF SINGLE EXCITATIONS =    90
 NUMBER OF ATOMIC ORBITALS    =  23
 NUMBER OF ELECTRONS          =           9.9999970

          -------------------
          SINGLET EXCITATIONS
          -------------------

 STATE #   1  ENERGY =    7.834578 EV
 OSCILLATOR STRENGTH =    0.071293
 LAMBDA DIAGNOSTIC   =    0.468 (RYDBERG/CHARGE TRANSFER CHARACTER)
 SYMMETRY OF STATE   =    A   
                 EXCITATION  DE-EXCITATION
     OCC     VIR  AMPLITUDE      AMPLITUDE
      I       A     X(I->A)        Y(A->I)
     ---     ---   --------       --------
      5       6   -0.998703       0.020359
      5      11   -0.049275       0.006173

 STATE #   2  ENERGY =    9.639445 EV
 OSCILLATOR STRENGTH =    0.122907
 LAMBDA DIAGNOSTIC   =    0.489 (RYDBERG/CHARGE TRANSFER CHARACTER)
 SYMMETRY OF STATE   =    A   
                 EXCITATION  DE-EXCITATION
     OCC     VIR  AMPLITUDE      AMPLITUDE
      I       A     X(I->A)        Y(A->I)
     ---     ---   --------       --------
      4       6   -0.987195       0.018395
      3       7   -0.046422      -0.012449
      5       8   -0.140539      -0.010521
      4       9    0.046369       0.000811
      3      10    0.040057       0.012821

 STATE #   3  ENERGY =   10.033996 EV
 OSCILLATOR STRENGTH =    0.000000
 LAMBDA DIAGNOSTIC   =    0.380 (RYDBERG/CHARGE TRANSFER CHARACTER)
 SYMMETRY OF STATE   =    A   
                 EXCITATION  DE-EXCITATION
     OCC     VIR  AMPLITUDE      AMPLITUDE
      I       A     X(I->A)        Y(A->I)
     ---     ---   --------       --------
      5       7    0.992429      -0.004764
      5      10   -0.120017       0.005269

 STATE #   4  ENERGY =   11.624753 EV
 OSCILLATOR STRENGTH =    0.016256
 LAMBDA DIAGNOSTIC   =    0.330 (RYDBERG/CHARGE TRANSFER CHARACTER)
 SYMMETRY OF STATE   =    A   
                 EXCITATION  DE-EXCITATION
     OCC     VIR  AMPLITUDE      AMPLITUDE
      I       A     X(I->A)        Y(A->I)
     ---     ---   --------       --------
      4       8   -0.033322       0.003072
      5       9   -0.996458       0.004207
      5      11   -0.070776      -0.001378

 STATE #   5  ENERGY =   11.903091 EV
 OSCILLATOR STRENGTH =    0.021586
 LAMBDA DIAGNOSTIC   =    0.421 (RYDBERG/CHARGE TRANSFER CHARACTER)
 SYMMETRY OF STATE   =    A   
                 EXCITATION  DE-EXCITATION
     OCC     VIR  AMPLITUDE      AMPLITUDE
      I       A     X(I->A)        Y(A->I)
     ---     ---   --------       --------
      3       6   -0.036734       0.000716
      4       7   -0.998464       0.010081
      3      11   -0.033045      -0.004775

 STATE #   6  ENERGY =   11.975761 EV
 OSCILLATOR STRENGTH =    0.001278
 LAMBDA DIAGNOSTIC   =    0.523 (RYDBERG/CHARGE TRANSFER CHARACTER)
 SYMMETRY OF STATE   =    A   
                 EXCITATION  DE-EXCITATION
     OCC     VIR  AMPLITUDE      AMPLITUDE
      I       A     X(I->A)        Y(A->I)
     ---     ---   --------       --------
      2       6    0.030705       0.013301
      4       6    0.109078      -0.013224
      3       7    0.128995       0.020116
      5       8   -0.923807       0.018475
      4       9   -0.331855      -0.016631
      3      10   -0.042769      -0.008297
      4      11   -0.073909      -0.010686

 STATE #   7  ENERGY =   12.672347 EV
 OSCILLATOR STRENGTH =    0.000000
 LAMBDA DIAGNOSTIC   =    0.373 (RYDBERG/CHARGE TRANSFER CHARACTER)
 SYMMETRY OF STATE   =    A   
                 EXCITATION  DE-EXCITATION
     OCC     VIR  AMPLITUDE      AMPLITUDE
      I       A     X(I->A)        Y(A->I)
     ---     ---   --------       --------
      5       7   -0.120415      -0.004670
      5      10   -0.992439       0.000921

 STATE #   8  ENERGY =   13.053297 EV
 OSCILLATOR STRENGTH =    0.003136
 LAMBDA DIAGNOSTIC   =    0.333 (RYDBERG/CHARGE TRANSFER CHARACTER)
 SYMMETRY OF STATE   =    A   
                 EXCITATION  DE-EXCITATION
     OCC     VIR  AMPLITUDE      AMPLITUDE
      I       A     X(I->A)        Y(A->I)
     ---     ---   --------       --------
      4       8    0.986122      -0.002426
      5      11   -0.163481      -0.005283

 STATE #   9  ENERGY =   13.704805 EV
 OSCILLATOR STRENGTH =    0.175197
 LAMBDA DIAGNOSTIC   =    0.445 (RYDBERG/CHARGE TRANSFER CHARACTER)
 SYMMETRY OF STATE   =    A   
                 EXCITATION  DE-EXCITATION
     OCC     VIR  AMPLITUDE      AMPLITUDE
      I       A     X(I->A)        Y(A->I)
     ---     ---   --------       --------
      5       6   -0.046553      -0.006271
      4       8    0.161758      -0.007133
      5       9   -0.076612       0.001869
      5      11    0.982395      -0.012811

 STATE #  10  ENERGY =   13.883658 EV
 OSCILLATOR STRENGTH =    0.039345
 LAMBDA DIAGNOSTIC   =    0.480 (RYDBERG/CHARGE TRANSFER CHARACTER)
 SYMMETRY OF STATE   =    A   
                 EXCITATION  DE-EXCITATION
     OCC     VIR  AMPLITUDE      AMPLITUDE
      I       A     X(I->A)        Y(A->I)
     ---     ---   --------       --------
      4       6   -0.067529       0.004647
      3       7   -0.256245      -0.021558
      5       8    0.264080      -0.025410
      4       9   -0.906545       0.021401
      3      10    0.061396       0.007593
      4      11    0.185452       0.009555

                          SUMMARY OF TDDFT RESULTS

   STATE             ENERGY     EXCITATION  TRANSITION DIPOLE, A.U.  OSCILLATOR
   0 ->             HARTREE          EV         X       Y       Z     STRENGTH
   0  A          -76.3868898923    0.000
   1  A          -76.0989744307    7.835     0.0000 -0.0000  0.6094    0.0713
   2  A          -76.0326467977    9.639    -0.7157 -0.0905  0.0000    0.1229
   3  A          -76.0181473141   10.034    -0.0000 -0.0000  0.0000    0.0000
   4  A          -75.9596880480   11.625    -0.0000 -0.0000 -0.2389    0.0163
   5  A          -75.9494593136   11.903     0.0342 -0.2699  0.0000    0.0216
   6  A          -75.9467887415   11.976     0.0655  0.0083 -0.0000    0.0013
   7  A          -75.9211896778   12.672    -0.0000 -0.0000  0.0001    0.0000
   8  A          -75.9071900275   13.053     0.0000 -0.0000 -0.0990    0.0031
   9  A          -75.8832475696   13.705    -0.0000 -0.0000  0.7224    0.1752
  10  A          -75.8766748214   13.884     0.3374  0.0427  0.0000    0.0393
  
 TRANSITION        EXCITATION            TRANSITION DIPOLE, A.U.     OSCILLATOR
                       EV              X       Y       Z       DIP    STRENGTH

  1  ->  2           1.805         -0.0000 -0.0000 -0.0243   0.0243    0.0000
  1  ->  3           2.199         -0.2268  1.7931 -0.0000   1.8074    0.1760
  1  ->  4           3.790         -1.1241 -0.1422  0.0000   1.1331    0.1192
  1  ->  5           4.069          0.0000 -0.0000 -0.0002   0.0002    0.0000
  1  ->  6           4.141         -0.0000 -0.0000 -1.5653   1.5653    0.2486
  1  ->  7           4.838          0.0141 -0.1103  0.0000   0.1112    0.0015
  1  ->  8           5.219         -0.0052 -0.0006  0.0000   0.0053    0.0000
  1  ->  9           5.870         -0.2065 -0.0261 -0.0000   0.2082    0.0062
  1  -> 10           6.049         -0.0000  0.0000  0.4668   0.4668    0.0323
  2  ->  3           0.395         -0.0000 -0.0000 -0.0000   0.0000    0.0000
  2  ->  4           1.985         -0.0000  0.0000  0.0259   0.0259    0.0000
  2  ->  5           2.264          0.2317 -1.8331  0.0000   1.8477    0.1893
  2  ->  6           2.336         -0.2195 -0.0275  0.0000   0.2212    0.0028
  2  ->  7           3.033          0.0000  0.0000  0.0005   0.0005    0.0000
  2  ->  8           3.414         -0.0000 -0.0000  1.7222   1.7222    0.2481
  2  ->  9           4.065          0.0000  0.0000  0.0248   0.0248    0.0001
  2  -> 10           4.244         -1.2885 -0.1629 -0.0000   1.2988    0.1754
  3  ->  4           1.591          0.0846 -0.6703  0.0000   0.6756    0.0178
  3  ->  5           1.869          0.0000 -0.0000 -0.1858   0.1858    0.0016
  3  ->  6           1.942          0.0000  0.0000  0.0000   0.0000    0.0000
  3  ->  7           2.638         -1.0018 -0.1267  0.0000   1.0097    0.0659
  3  ->  8           3.019         -0.0042  0.0355  0.0000   0.0357    0.0001
  3  ->  9           3.671          0.0485 -0.3822 -0.0000   0.3852    0.0133
  3  -> 10           3.850         -0.0000 -0.0000  0.0000   0.0000    0.0000
  4  ->  5           0.278          0.0000 -0.0000  0.0001   0.0001    0.0000
  4  ->  6           0.351          0.0000  0.0000  0.7456   0.7456    0.0048
  4  ->  7           1.048         -0.1528  1.2057 -0.0000   1.2153    0.0379
  4  ->  8           1.429          0.2202  0.0275 -0.0000   0.2219    0.0017
  4  ->  9           2.080         -0.9436 -0.1197  0.0000   0.9512    0.0461
  4  -> 10           2.259         -0.0000  0.0000 -0.0179   0.0179    0.0000
  5  ->  6           0.073         -0.0589  0.4665 -0.0000   0.4702    0.0004
  5  ->  7           0.769         -0.0000 -0.0000  0.0326   0.0326    0.0000
  5  ->  8           1.150          0.0000  0.0000 -0.0001   0.0001    0.0000
  5  ->  9           1.802          0.0000 -0.0000 -0.0003   0.0003    0.0000
  5  -> 10           1.981         -0.0749  0.5945 -0.0000   0.5992    0.0174
  6  ->  7           0.697         -0.0000  0.0000 -0.0005   0.0005    0.0000
  6  ->  8           1.078          0.0000 -0.0000 -0.3533   0.3533    0.0033
  6  ->  9           1.729         -0.0000  0.0000 -1.8175   1.8175    0.1399
  6  -> 10           1.908          0.4673  0.0590 -0.0000   0.4710    0.0104
  7  ->  8           0.381         -0.0261  0.2048  0.0000   0.2064    0.0004
  7  ->  9           1.032          0.1241 -0.9821  0.0000   0.9899    0.0248
  7  -> 10           1.211          0.0000 -0.0000  0.0001   0.0001    0.0000
  8  ->  9           0.652          0.1414  0.0182  0.0000   0.1425    0.0003
  8  -> 10           0.830          0.0000  0.0000 -0.0757   0.0757    0.0001
  9  -> 10           0.179         -0.0000  0.0000  0.5514   0.5514    0.0013
 
 SELECTING EXCITED STATE IROOT=   1 AT E=      -76.0989744307
 AS THE STATE OF INTEREST.

 ..... DONE WITH TD-DFT EXCITATION ENERGIES .....
 CPU     0: STEP CPU TIME=     0.66 TOTAL CPU TIME=          1.1 (      0.0 MIN)
 TOTAL WALL CLOCK TIME=          1.3 SECONDS, CPU UTILIZATION IS    85.07%
                580000  WORDS OF DYNAMIC MEMORY USED
 EXECUTION OF GAMESS TERMINATED NORMALLY Wed Apr 24 12:36:38 2024
 DDI: 263640 bytes (0.3 MB / 0 MWords) used by master data server.

 ----------------------------------------
 CPU timing information for all processes
 ========================================
 0: 1.112 + 0.288 = 1.400
 1: 1.53 + 0.57 = 1.110
 2: 1.22 + 0.62 = 1.84
 3: 1.18 + 0.61 = 1.79
 4: 1.59 + 0.66 = 1.126
 5: 1.49 + 0.60 = 1.109
 6: 1.10 + 0.66 = 1.76
 7: 0.964 + 0.67 = 1.32
 8: 0.144 + 0.09 = 0.153
 9: 0.150 + 0.10 = 0.160
 10: 0.138 + 0.11 = 0.150
 11: 0.100 + 0.10 = 0.111
 12: 0.122 + 0.09 = 0.132
 13: 0.147 + 0.07 = 0.155
 14: 0.122 + 0.07 = 0.130
 15: 0.125 + 0.09 = 0.135
 ----------------------------------------
else
unset echo
----- accounting info -----
Files used on the master node cn0170 were:
-rw-------. 1 lever046 lever046      926 Apr 24 12:36 /tmp/gms_h2o_b3lyp_nosmd_uvv.F05
-rw-------. 1 lever046 lever046 57344000 Apr 24 12:36 /tmp/gms_h2o_b3lyp_nosmd_uvv.F10
-rw-------. 1 lever046 lever046   609800 Apr 24 12:36 /tmp/gms_h2o_b3lyp_nosmd_uvv.F22
-rw-------. 1 lever046 lever046   609800 Apr 24 12:36 /tmp/gms_h2o_b3lyp_nosmd_uvv.F22.001
-rw-------. 1 lever046 lever046   609800 Apr 24 12:36 /tmp/gms_h2o_b3lyp_nosmd_uvv.F22.002
-rw-------. 1 lever046 lever046   609800 Apr 24 12:36 /tmp/gms_h2o_b3lyp_nosmd_uvv.F22.003
-rw-------. 1 lever046 lever046   609800 Apr 24 12:36 /tmp/gms_h2o_b3lyp_nosmd_uvv.F22.004
-rw-------. 1 lever046 lever046   609800 Apr 24 12:36 /tmp/gms_h2o_b3lyp_nosmd_uvv.F22.005
-rw-------. 1 lever046 lever046   609800 Apr 24 12:36 /tmp/gms_h2o_b3lyp_nosmd_uvv.F22.006
-rw-------. 1 lever046 lever046   609800 Apr 24 12:36 /tmp/gms_h2o_b3lyp_nosmd_uvv.F22.007
-rw-------. 1 lever046 lever046        7 Apr 24 12:36 /tmp/gms_h2o_b3lyp_nosmd_uvv.nodes.mpd
ls: No match.
ls: No match.
ls: No match.
Wed Apr 24 12:36:40 CDT 2024
0.351u 0.234s 0:13.35 4.3%	0+0k 8+496io 0pf+0w
