 argument  1 = nwc_h2o_b3lyp_nosmd_ram.inp
                                         
                                         
 
 
              Northwest Computational Chemistry Package (NWChem) 6.8
              ------------------------------------------------------
 
 
                    Environmental Molecular Sciences Laboratory
                       Pacific Northwest National Laboratory
                                Richland, WA 99352
 
                              Copyright (c) 1994-2017
                       Pacific Northwest National Laboratory
                            Battelle Memorial Institute
 
             NWChem is an open-source computational chemistry package
                        distributed under the terms of the
                      Educational Community License (ECL) 2.0
             A copy of the license is included with this distribution
                              in the LICENSE.TXT file
 
                                  ACKNOWLEDGMENT
                                  --------------

            This software and its documentation were developed at the
            EMSL at Pacific Northwest National Laboratory, a multiprogram
            national laboratory, operated for the U.S. Department of Energy
            by Battelle under Contract Number DE-AC05-76RL01830. Support
            for this work was provided by the Department of Energy Office
            of Biological and Environmental Research, Office of Basic
            Energy Sciences, and the Office of Advanced Scientific Computing.


           Job information
           ---------------

    hostname        = acn143
    program         = nwchem
    date            = Wed Apr 24 15:52:16 2024

    compiled        = Tue_Aug_14_10:52:15_2018
    source          = /panfs/roc/msisoft/nwchem/6.8_impi_2018
    nwchem branch   = 6.8
    nwchem revision = v6.8-47-gdf6c956
    ga revision     = ga-5.6.3
    use scalapack   = T
    input           = nwc_h2o_b3lyp_nosmd_ram.inp
    prefix          = nwc_h2o_b3lyp_nosmd_ram.
    data base       = ./nwc_h2o_b3lyp_nosmd_ram.db
    status          = startup
    nproc           =        8
    time left       =     -1s



           Memory information
           ------------------

    heap     =   13107198 doubles =    100.0 Mbytes
    stack    =   13107195 doubles =    100.0 Mbytes
    global   =   26214400 doubles =    200.0 Mbytes (distinct from heap & stack)
    total    =   52428793 doubles =    400.0 Mbytes
    verify   = yes
    hardfail = no 


           Directory information
           ---------------------
 
  0 permanent = .
  0 scratch   = /scratch.global/lever046/nwchem
 
 
 
 
                                NWChem Input Module
                                -------------------
 
 
                            water molecule optimization
                            ---------------------------

 Scaling coordinates for geometry "geometry" by  1.889725989
 (inverse scale =  0.529177249)

 CS  symmetry detected

          ------
          auto-z
          ------
     1 autoz failed with cvr_scaling = 1.2 changing to 1.3
     2 autoz failed with cvr_scaling = 1.3 changing to 1.4
     3 autoz failed with cvr_scaling = 1.4 changing to 1.5
     4 autoz failed with cvr_scaling = 1.5 changing to 1.6
     5 autoz failed with cvr_scaling = 1.6 changing to 1.7

 AUTOZ failed to generate good internal coordinates.
 Cartesian coordinates will be used in optimizations.

 
 
                             Geometry "geometry" -> ""
                             -------------------------
 
 Output coordinates in angstroms (scale by  1.889725989 to convert to a.u.)
 
  No.       Tag          Charge          X              Y              Z
 ---- ---------------- ---------- -------------- -------------- --------------
    1 O                    8.0000     0.22186344     0.06462389     0.00000000
    2 H                    1.0000    -1.08694543     1.33719488     0.00000000
    3 H                    1.0000    -0.68796206    -1.85418601     0.00000000
 
      Atomic Mass 
      ----------- 
 
      O                 15.994910
      H                  1.007825
 

 Effective nuclear repulsion energy (a.u.)       4.4771147998

            Nuclear Dipole moment (a.u.) 
            ----------------------------
        X                 Y               Z
 ---------------- ---------------- ----------------
     0.0000000000    -0.0000000000     0.0000000000
 
      Symmetry information
      --------------------
 
 Group name             Cs        
 Group number              2
 Group order               2
 No. of unique centers     3
 
      Symmetry unique atoms
 
     1    2    3
 
 
            XYZ format geometry
            -------------------
     3
 geometry
 O                     0.22186344     0.06462389     0.00000000
 H                    -1.08694543     1.33719488     0.00000000
 H                    -0.68796206    -1.85418601     0.00000000
 
  library name resolved from: environment
  library file name is: <
 /common/software/install/migrated/nwchem/6.5_ompi_1.7.2/src/basis/libraries/>
  


 Summary of "ao basis" -> "" (cartesian)
 ------------------------------------------------------------------------------
       Tag                 Description            Shells   Functions and Types
 ---------------- ------------------------------  ------  ---------------------
 *                          6-31+G*                   on all atoms 


 
 
                           NWChem Geometry Optimization
                           ----------------------------
 
 
 
 
                            water molecule optimization
 
 
 maximum gradient threshold         (gmax) =   0.000450
 rms gradient threshold             (grms) =   0.000300
 maximum cartesian step threshold   (xmax) =   0.001800
 rms cartesian step threshold       (xrms) =   0.001200
 fixed trust radius                (trust) =   0.300000
 maximum step size to saddle      (sadstp) =   0.100000
 energy precision                  (eprec) =   5.0D-06
 maximum number of steps          (nptopt) =   20
 initial hessian option           (inhess) =    0
 line search option               (linopt) =    1
 hessian update option            (modupd) =    1
 saddle point option              (modsad) =    0
 initial eigen-mode to follow     (moddir) =    0
 initial variable to follow       (vardir) =    0
 follow first negative mode     (firstneg) =    T
 apply conjugacy                    (opcg) =    F
 source of zmatrix                         =           


          -------------------
          Energy Minimization
          -------------------

 
 Using diagonal initial Hessian 

          --------
          Step   0
          --------
 
 
                         Geometry "geometry" -> "geometry"
                         ---------------------------------
 
 Output coordinates in angstroms (scale by  1.889725989 to convert to a.u.)
 
  No.       Tag          Charge          X              Y              Z
 ---- ---------------- ---------- -------------- -------------- --------------
    1 O                    8.0000     0.22186344     0.06462389     0.00000000
    2 H                    1.0000    -1.08694543     1.33719488     0.00000000
    3 H                    1.0000    -0.68796206    -1.85418601     0.00000000
 
      Atomic Mass 
      ----------- 
 
      O                 15.994910
      H                  1.007825
 

 Effective nuclear repulsion energy (a.u.)       4.4771147998

            Nuclear Dipole moment (a.u.) 
            ----------------------------
        X                 Y               Z
 ---------------- ---------------- ----------------
     0.0000000000    -0.0000000000     0.0000000000
 
      Symmetry information
      --------------------
 
 Group name             Cs        
 Group number              2
 Group order               2
 No. of unique centers     3
 
      Symmetry unique atoms
 
     1    2    3
 
 
                                 NWChem DFT Module
                                 -----------------
 
 
                            water molecule optimization
 
 
                      Basis "ao basis" -> "ao basis" (cartesian)
                      -----
  O (Oxygen)
  ----------
            Exponent  Coefficients 
       -------------- ---------------------------------------------------------
  1 S  5.48467170E+03  0.001831
  1 S  8.25234950E+02  0.013950
  1 S  1.88046960E+02  0.068445
  1 S  5.29645000E+01  0.232714
  1 S  1.68975700E+01  0.470193
  1 S  5.79963530E+00  0.358521
 
  2 S  1.55396160E+01 -0.110778
  2 S  3.59993360E+00 -0.148026
  2 S  1.01376180E+00  1.130767
 
  3 P  1.55396160E+01  0.070874
  3 P  3.59993360E+00  0.339753
  3 P  1.01376180E+00  0.727159
 
  4 S  2.70005800E-01  1.000000
 
  5 P  2.70005800E-01  1.000000
 
  6 S  8.45000000E-02  1.000000
 
  7 P  8.45000000E-02  1.000000
 
  8 D  8.00000000E-01  1.000000
 
  H (Hydrogen)
  ------------
            Exponent  Coefficients 
       -------------- ---------------------------------------------------------
  1 S  1.87311370E+01  0.033495
  1 S  2.82539370E+00  0.234727
  1 S  6.40121700E-01  0.813757
 
  2 S  1.61277800E-01  1.000000
 


 Summary of "ao basis" -> "ao basis" (cartesian)
 ------------------------------------------------------------------------------
       Tag                 Description            Shells   Functions and Types
 ---------------- ------------------------------  ------  ---------------------
 O                          6-31+G*                  8       19   4s3p1d
 H                          6-31+G*                  2        2   2s




 Summary of "ao basis" -> "ao basis" (cartesian)
 ------------------------------------------------------------------------------
       Tag                 Description            Shells   Functions and Types
 ---------------- ------------------------------  ------  ---------------------
 O                          6-31+G*                  8       19   4s3p1d
 H                          6-31+G*                  2        2   2s


      Symmetry analysis of basis
      --------------------------
 
        a'         18
        a"          5
 
  Caching 1-el integrals 
 
            General Information
            -------------------
          SCF calculation type: DFT
          Wavefunction type:  closed shell.
          No. of atoms     :     3
          No. of electrons :    10
           Alpha electrons :     5
            Beta electrons :     5
          Charge           :     0
          Spin multiplicity:     1
          Use of symmetry is: on ; symmetry adaption is: on 
          Maximum number of iterations:  30
          AO basis - number of functions:    23
                     number of shells:    12
          Convergence on energy requested:  1.00D-06
          Convergence on density requested:  1.00D-05
          Convergence on gradient requested:  5.00D-04
 
              XC Information
              --------------
                         B3LYP Method XC Potential
                     Hartree-Fock (Exact) Exchange  0.200          
                        Slater Exchange Functional  0.800 local    
                    Becke 1988 Exchange Functional  0.720 non-local
              Lee-Yang-Parr Correlation Functional  0.810          
                  VWN I RPA Correlation Functional  0.190 local    
 
             Grid Information
             ----------------
          Grid used for XC integration:  medium    
          Radial quadrature: Mura-Knowles        
          Angular quadrature: Lebedev. 
          Tag              B.-S. Rad. Rad. Pts. Rad. Cut. Ang. Pts.
          ---              ---------- --------- --------- ---------
          O                   0.60       49           7.0       434
          H                   0.35       45           9.0       434
          Grid pruning is: on 
          Number of quadrature shells:   139
          Spatial weights used:  Erf1
 
          Convergence Information
          -----------------------
          Convergence aids based upon iterative change in 
          total energy or number of iterations. 
          Levelshifting, if invoked, occurs when the 
          HOMO/LUMO gap drops below (HL_TOL):  1.00D-02
          DIIS, if invoked, will attempt to extrapolate 
          using up to (NFOCK): 10 stored Fock matrices.

                    Damping( 0%)  Levelshifting(0.5)       DIIS
                  --------------- ------------------- ---------------
          dE  on:    start            ASAP                start   
          dE off:    2 iters         30 iters            30 iters 

 
      Screening Tolerance Information
      -------------------------------
          Density screening/tol_rho:  1.00D-10
          AO Gaussian exp screening on grid/accAOfunc:  14
          CD Gaussian exp screening on grid/accCDfunc:  20
          XC Gaussian exp screening on grid/accXCfunc:  20
          Schwarz screening/accCoul:  1.00D-08

 
      Superposition of Atomic Density Guess
      -------------------------------------
 
 Sum of atomic energies:         -75.75320674
 
      Non-variational initial energy
      ------------------------------

 Total energy =     -75.008172
 1-e energy   =    -113.070047
 2-e energy   =      33.584760
 HOMO         =      -0.382076
 LUMO         =      -0.161718
 
 
      Symmetry analysis of molecular orbitals - initial
      -------------------------------------------------
 
  Numbering of irreducible representations: 
 
     1 a'          2 a"      
 
  Orbital symmetries:
 
     1 a'          2 a'          3 a'          4 a'          5 a"      
     6 a'          7 a'          8 a'          9 a"         10 a'      
    11 a'         12 a'         13 a'         14 a'         15 a"      
 
   Time after variat. SCF:      0.3
   Time prior to 1st pass:      0.4

 #quartets = 3.078D+03 #integrals = 1.647D+04 #direct =  0.0% #cached =100.0%


 Integral file          = /scratch.global/lever046/nwchem/nwc_h2o_b3lyp_nosmd_ram.aoints.0
 Record size in doubles =    65536    No. of integs per rec  =    43688
 Max. records in memory =        2    Max. records in file   = 53488762
 No. of bits per label  =        8    No. of bits per value  =       64


File balance: exchanges=     0  moved=     0  time=   0.0


 Grid_pts file          = /scratch.global/lever046/nwchem/nwc_h2o_b3lyp_nosmd_ram.gridpts.0
 Record size in doubles =  12289        No. of grid_pts per rec  =   3070
 Max. records in memory =      4        Max. recs in file   = 285245833


           Memory utilization after 1st SCF pass: 
           Heap Space remaining (MW):       12.93            12925246
          Stack Space remaining (MW):       13.11            13106924

   convergence    iter        energy       DeltaE   RMS-Dens  Diis-err    time
 ---------------- ----- ----------------- --------- --------- ---------  ------
 d= 0,ls=0.0,diis     1    -75.7672950543 -8.02D+01  1.19D-01  1.47D+00     1.2
 d= 0,ls=0.0,diis     2    -73.2086060355  2.56D+00  9.13D-02  1.26D+01     1.3
 d= 0,ls=0.0,diis     3    -76.0369241054 -2.83D+00  8.24D-03  3.21D-01     1.3
 d= 0,ls=0.0,diis     4    -76.0558627510 -1.89D-02  8.80D-03  1.95D-01     1.3
 d= 0,ls=0.0,diis     5    -76.0422452989  1.36D-02  4.09D-03  2.72D-01     1.3
  Resetting Diis
 d= 0,ls=0.0,diis     6    -76.0660050121 -2.38D-02  6.77D-03  1.06D-01     1.3
 d= 0,ls=0.0,diis     7    -76.0811993472 -1.52D-02  1.63D-03  1.08D-04     1.4
 d= 0,ls=0.0,diis     8    -76.0806117119  5.88D-04  1.11D-03  4.57D-03     1.4
 d= 0,ls=0.0,diis     9    -76.0812067492 -5.95D-04  3.22D-04  7.74D-05     1.4
 d= 0,ls=0.0,diis    10    -76.0812211357 -1.44D-05  7.93D-05  4.84D-06     1.4
 d= 0,ls=0.0,diis    11    -76.0812221832 -1.05D-06  8.63D-06  1.05D-07     1.4
 d= 0,ls=0.0,diis    12    -76.0812221971 -1.39D-08  2.54D-06  5.40D-09     1.5


         Total DFT energy =      -76.081222197062
      One electron energy =     -113.701597878548
           Coulomb energy =       42.009763053350
    Exchange-Corr. energy =       -8.866502171649
 Nuclear repulsion energy =        4.477114799785

 Numeric. integr. density =       10.000002041542

     Total iterative time =      1.1s


 
                  Occupations of the irreducible representations
                  ----------------------------------------------
 
                     irrep           alpha         beta
                     --------     --------     --------
                     a'                4.0          4.0
                     a"                1.0          1.0
 
 
                       DFT Final Molecular Orbital Analysis
                       ------------------------------------
 
 Vector    1  Occ=2.000000D+00  E=-1.924125D+01  Symmetry=a'
              MO Center=  2.2D-01,  6.5D-02, -1.3D-28, r^2= 1.5D-02
   Bfn.  Coefficient  Atom+Function         Bfn.  Coefficient  Atom+Function  
  ----- ------------  ---------------      ----- ------------  ---------------
     1      0.992921  1 O  s                  2      0.025337  1 O  s          
 
 Vector    2  Occ=2.000000D+00  E=-8.906408D-01  Symmetry=a'
              MO Center=  1.9D-01,  7.2D-02, -5.8D-17, r^2= 4.8D-01
   Bfn.  Coefficient  Atom+Function         Bfn.  Coefficient  Atom+Function  
  ----- ------------  ---------------      ----- ------------  ---------------
     6      0.550320  1 O  s                  2      0.539968  1 O  s          
     1     -0.234411  1 O  s          
 
 Vector    3  Occ=2.000000D+00  E=-3.549513D-01  Symmetry=a'
              MO Center= -2.6D-01,  3.7D-01,  4.7D-17, r^2= 1.7D+00
   Bfn.  Coefficient  Atom+Function         Bfn.  Coefficient  Atom+Function  
  ----- ------------  ---------------      ----- ------------  ---------------
     4      0.408580  1 O  py                21      0.315135  2 H  s          
     3     -0.266812  1 O  px                 8      0.251869  1 O  py         
    20      0.239840  2 H  s                  7     -0.162852  1 O  px         
    23     -0.130078  3 H  s                 22     -0.095113  3 H  s          
     6     -0.058881  1 O  s                 12      0.057158  1 O  py         
 
 Vector    4  Occ=2.000000D+00  E=-3.274537D-01  Symmetry=a'
              MO Center= -1.6D-01, -5.3D-01, -9.6D-17, r^2= 1.9D+00
   Bfn.  Coefficient  Atom+Function         Bfn.  Coefficient  Atom+Function  
  ----- ------------  ---------------      ----- ------------  ---------------
     3      0.423330  1 O  px                23     -0.335484  3 H  s          
     4      0.257821  1 O  py                 7      0.256204  1 O  px         
    22     -0.235544  3 H  s                  8      0.157937  1 O  py         
    21     -0.117724  2 H  s                  6      0.099322  1 O  s          
    20     -0.086799  2 H  s                 11      0.079530  1 O  px         
 
 Vector    5  Occ=2.000000D+00  E=-3.027421D-01  Symmetry=a"
              MO Center=  2.2D-01,  6.5D-02, -2.4D-16, r^2= 6.7D-01
   Bfn.  Coefficient  Atom+Function         Bfn.  Coefficient  Atom+Function  
  ----- ------------  ---------------      ----- ------------  ---------------
     5      0.674732  1 O  pz                 9      0.402300  1 O  pz         
    13      0.124204  1 O  pz         
 
 Vector    6  Occ=0.000000D+00  E=-1.946653D-01  Symmetry=a'
              MO Center= -3.3D-01, -9.1D-01,  3.3D-16, r^2= 2.3D+00
   Bfn.  Coefficient  Atom+Function         Bfn.  Coefficient  Atom+Function  
  ----- ------------  ---------------      ----- ------------  ---------------
    23      0.571717  3 H  s                  3      0.356724  1 O  px         
    22      0.308135  3 H  s                  4      0.278742  1 O  py         
     7      0.238334  1 O  px                 8      0.184633  1 O  py         
    21      0.173876  2 H  s                  6     -0.150013  1 O  s          
    20      0.089914  2 H  s                 11      0.074028  1 O  px         
 
 Vector    7  Occ=0.000000D+00  E=-1.488220D-01  Symmetry=a'
              MO Center= -5.7D-01,  6.9D-01,  1.0D-16, r^2= 2.1D+00
   Bfn.  Coefficient  Atom+Function         Bfn.  Coefficient  Atom+Function  
  ----- ------------  ---------------      ----- ------------  ---------------
    21      0.641677  2 H  s                  4     -0.385273  1 O  py         
    20      0.309043  2 H  s                  8     -0.286429  1 O  py         
     3      0.271850  1 O  px                 7      0.202686  1 O  px         
    23     -0.199414  3 H  s                  6     -0.161355  1 O  s          
    22     -0.101760  3 H  s                 12     -0.071371  1 O  py         
 
 Vector    8  Occ=0.000000D+00  E= 1.444547D-01  Symmetry=a'
              MO Center=  1.2D+00,  2.3D-01,  9.5D-16, r^2= 3.3D+00
   Bfn.  Coefficient  Atom+Function         Bfn.  Coefficient  Atom+Function  
  ----- ------------  ---------------      ----- ------------  ---------------
    10      1.444095  1 O  s                  6     -1.001701  1 O  s          
    11      0.605304  1 O  px                 7     -0.278506  1 O  px         
    21     -0.212262  2 H  s                  3     -0.171195  1 O  px         
    23     -0.144007  3 H  s                 12      0.114279  1 O  py         
     1      0.077835  1 O  s                 19      0.064403  1 O  dzz        
 
 Vector    9  Occ=0.000000D+00  E= 1.626183D-01  Symmetry=a"
              MO Center=  2.2D-01,  6.5D-02, -5.3D-15, r^2= 4.8D+00
   Bfn.  Coefficient  Atom+Function         Bfn.  Coefficient  Atom+Function  
  ----- ------------  ---------------      ----- ------------  ---------------
    13      1.201324  1 O  pz                 9     -0.454388  1 O  pz         
     5     -0.261886  1 O  pz         
 
 Vector   10  Occ=0.000000D+00  E= 2.018290D-01  Symmetry=a'
              MO Center=  6.4D-01,  3.7D-02, -1.2D-16, r^2= 4.8D+00
   Bfn.  Coefficient  Atom+Function         Bfn.  Coefficient  Atom+Function  
  ----- ------------  ---------------      ----- ------------  ---------------
    12      1.600543  1 O  py                23      0.687673  3 H  s          
     8     -0.465065  1 O  py                21     -0.429221  2 H  s          
    10     -0.313462  1 O  s                  6      0.237806  1 O  s          
     4     -0.206225  1 O  py                22      0.071733  3 H  s          
    11      0.045293  1 O  px                20     -0.037668  2 H  s          
 
 Vector   11  Occ=0.000000D+00  E= 2.031211D-01  Symmetry=a'
              MO Center= -5.9D-01, -6.7D-02,  4.6D-15, r^2= 4.2D+00
   Bfn.  Coefficient  Atom+Function         Bfn.  Coefficient  Atom+Function  
  ----- ------------  ---------------      ----- ------------  ---------------
    10      1.552445  1 O  s                 11     -1.379632  1 O  px         
    21     -0.929329  2 H  s                  6     -0.901596  1 O  s          
    23     -0.452329  3 H  s                  7      0.360637  1 O  px         
    12      0.265980  1 O  py                 3      0.158637  1 O  px         
    20     -0.113662  2 H  s                 22     -0.067699  3 H  s          
 
 Vector   12  Occ=0.000000D+00  E= 7.744843D-01  Symmetry=a'
              MO Center= -1.1D+00,  1.2D+00,  5.8D-17, r^2= 2.3D+00
   Bfn.  Coefficient  Atom+Function         Bfn.  Coefficient  Atom+Function  
  ----- ------------  ---------------      ----- ------------  ---------------
    21      1.530933  2 H  s                 20     -1.150657  2 H  s          
     6     -0.585333  1 O  s                 10     -0.421773  1 O  s          
    23      0.419331  3 H  s                  7      0.360370  1 O  px         
    22     -0.334848  3 H  s                  2      0.296990  1 O  s          
     8     -0.282191  1 O  py                 3     -0.226141  1 O  px         
 
 Vector   13  Occ=0.000000D+00  E= 7.975335D-01  Symmetry=a'
              MO Center= -7.6D-01, -1.7D+00,  3.6D-17, r^2= 2.1D+00
   Bfn.  Coefficient  Atom+Function         Bfn.  Coefficient  Atom+Function  
  ----- ------------  ---------------      ----- ------------  ---------------
    23      1.426842  3 H  s                 22     -1.252070  3 H  s          
    21     -0.338468  2 H  s                 20      0.311365  2 H  s          
    10     -0.306630  1 O  s                 12      0.255639  1 O  py         
     8      0.247613  1 O  py                 4     -0.137921  1 O  py         
    11      0.104990  1 O  px                 6      0.051074  1 O  s          
 
 Vector   14  Occ=0.000000D+00  E= 1.116337D+00  Symmetry=a'
              MO Center=  2.0D-01,  4.4D-02,  5.3D-18, r^2= 1.7D+00
   Bfn.  Coefficient  Atom+Function         Bfn.  Coefficient  Atom+Function  
  ----- ------------  ---------------      ----- ------------  ---------------
     8      1.164740  1 O  py                 7      0.896724  1 O  px         
     4     -0.760314  1 O  py                12     -0.658212  1 O  py         
     3     -0.582209  1 O  px                11     -0.484637  1 O  px         
    23     -0.295807  3 H  s                  6     -0.250285  1 O  s          
    10      0.205260  1 O  s                 22      0.155294  3 H  s          
 
 Vector   15  Occ=0.000000D+00  E= 1.130563D+00  Symmetry=a"
              MO Center=  2.2D-01,  6.5D-02, -2.7D-16, r^2= 1.8D+00
   Bfn.  Coefficient  Atom+Function         Bfn.  Coefficient  Atom+Function  
  ----- ------------  ---------------      ----- ------------  ---------------
     9      1.470758  1 O  pz                 5     -0.954251  1 O  pz         
    13     -0.700891  1 O  pz         
 
 Vector   16  Occ=0.000000D+00  E= 1.148509D+00  Symmetry=a'
              MO Center=  3.1D-01,  9.5D-03, -1.4D-16, r^2= 1.9D+00
   Bfn.  Coefficient  Atom+Function         Bfn.  Coefficient  Atom+Function  
  ----- ------------  ---------------      ----- ------------  ---------------
     7      1.105945  1 O  px                 8     -0.820161  1 O  py         
     3     -0.733283  1 O  px                11     -0.633363  1 O  px         
    21     -0.560231  2 H  s                  4      0.547313  1 O  py         
    12      0.525368  1 O  py                 6      0.510680  1 O  s          
    20      0.467924  2 H  s                  2     -0.234984  1 O  s          
 
 Vector   17  Occ=0.000000D+00  E= 1.221442D+00  Symmetry=a'
              MO Center=  1.1D-01,  2.1D-01,  1.4D-16, r^2= 2.2D+00
   Bfn.  Coefficient  Atom+Function         Bfn.  Coefficient  Atom+Function  
  ----- ------------  ---------------      ----- ------------  ---------------
     6      3.649524  1 O  s                  2     -1.687149  1 O  s          
    10     -1.639601  1 O  s                 21      0.562260  2 H  s          
    19     -0.500945  1 O  dzz               14     -0.461704  1 O  dxx        
    17     -0.426455  1 O  dyy               20     -0.356504  2 H  s          
    23      0.259968  3 H  s                 11      0.232785  1 O  px         
 
 Vector   18  Occ=0.000000D+00  E= 1.789793D+00  Symmetry=a'
              MO Center=  2.2D-01,  6.3D-02, -6.2D-18, r^2= 6.2D-01
   Bfn.  Coefficient  Atom+Function         Bfn.  Coefficient  Atom+Function  
  ----- ------------  ---------------      ----- ------------  ---------------
    14      0.897337  1 O  dxx               17     -0.734454  1 O  dyy        
    15      0.498620  1 O  dxy               19     -0.179622  1 O  dzz        
    10     -0.093167  1 O  s                  6      0.088997  1 O  s          
    23      0.072535  3 H  s                 21      0.052892  2 H  s          
    11      0.041214  1 O  px                 2     -0.035367  1 O  s          
 
 Vector   19  Occ=0.000000D+00  E= 1.804842D+00  Symmetry=a"
              MO Center=  2.2D-01,  6.2D-02,  7.3D-21, r^2= 6.1D-01
   Bfn.  Coefficient  Atom+Function         Bfn.  Coefficient  Atom+Function  
  ----- ------------  ---------------      ----- ------------  ---------------
    18      1.587733  1 O  dyz               16     -0.692125  1 O  dxz        
 
 Vector   20  Occ=0.000000D+00  E= 1.808851D+00  Symmetry=a"
              MO Center=  2.3D-01,  6.6D-02, -1.2D-21, r^2= 6.1D-01
   Bfn.  Coefficient  Atom+Function         Bfn.  Coefficient  Atom+Function  
  ----- ------------  ---------------      ----- ------------  ---------------
    16      1.587702  1 O  dxz               18      0.692164  1 O  dyz        
 
 Vector   21  Occ=0.000000D+00  E= 1.819240D+00  Symmetry=a'
              MO Center=  2.3D-01,  5.8D-02,  3.9D-17, r^2= 7.4D-01
   Bfn.  Coefficient  Atom+Function         Bfn.  Coefficient  Atom+Function  
  ----- ------------  ---------------      ----- ------------  ---------------
    15      1.603056  1 O  dxy               17      0.397275  1 O  dyy        
    19     -0.228708  1 O  dzz               23     -0.220302  3 H  s          
    12     -0.208264  1 O  py                21      0.168149  2 H  s          
    14     -0.166011  1 O  dxx               22      0.093879  3 H  s          
     8      0.078460  1 O  py                11      0.033446  1 O  px         
 
 Vector   22  Occ=0.000000D+00  E= 1.834949D+00  Symmetry=a'
              MO Center=  2.1D-01,  6.4D-02, -3.6D-17, r^2= 7.0D-01
   Bfn.  Coefficient  Atom+Function         Bfn.  Coefficient  Atom+Function  
  ----- ------------  ---------------      ----- ------------  ---------------
    19      0.932741  1 O  dzz               17     -0.591095  1 O  dyy        
    15      0.482672  1 O  dxy               14     -0.426483  1 O  dxx        
     6      0.291594  1 O  s                 10     -0.287634  1 O  s          
    21      0.230930  2 H  s                 11      0.149045  1 O  px         
    23      0.126918  3 H  s                  2     -0.095791  1 O  s          
 
 Vector   23  Occ=0.000000D+00  E= 3.660788D+00  Symmetry=a'
              MO Center=  2.2D-01,  6.4D-02, -8.8D-19, r^2= 1.1D+00
   Bfn.  Coefficient  Atom+Function         Bfn.  Coefficient  Atom+Function  
  ----- ------------  ---------------      ----- ------------  ---------------
     6      4.003268  1 O  s                 17     -1.623701  1 O  dyy        
    14     -1.611674  1 O  dxx               19     -1.605344  1 O  dzz        
    10     -1.022736  1 O  s                  1     -0.483308  1 O  s          
    21      0.173207  2 H  s                  2      0.164989  1 O  s          
    23      0.126144  3 H  s                 20     -0.108244  2 H  s          
 

 center of mass
 --------------
 x =   0.18465328 y =   0.05378540 z =   0.00000000

 moments of inertia (a.u.)
 ------------------
          18.995200684669           0.000000000000           0.000000000000
           0.000000000000           8.152910313413           0.000000000000
           0.000000000000           0.000000000000          27.148110998081
 
     Multipole analysis of the density
     ---------------------------------
 
     L   x y z        total         alpha         beta         nuclear
     -   - - -        -----         -----         ----         -------
     0   0 0 0     -0.000000     -5.000000     -5.000000     10.000000
 
     1   1 0 0     -0.819882     -0.409941     -0.409941      0.000000
     1   0 1 0     -0.169117     -0.084558     -0.084558     -0.000000
     1   0 0 1      0.000000      0.000000      0.000000      0.000000
 
     2   2 0 0     -4.528894     -5.922162     -5.922162      7.315430
     2   1 1 0     -0.313276     -0.043888     -0.043888     -0.225501
     2   1 0 1      0.000000      0.000000      0.000000      0.000000
     2   0 2 0     -1.229296    -10.005665    -10.005665     18.782034
     2   0 1 1      0.000000      0.000000      0.000000      0.000000
     2   0 0 2     -6.790056     -3.395028     -3.395028      0.000000
 

 Parallel integral file used       8 records with       0 large values

 
            General Information
            -------------------
          SCF calculation type: DFT
          Wavefunction type:  closed shell.
          No. of atoms     :     3
          No. of electrons :    10
           Alpha electrons :     5
            Beta electrons :     5
          Charge           :     0
          Spin multiplicity:     1
          Use of symmetry is: on ; symmetry adaption is: on 
          Maximum number of iterations:  30
          AO basis - number of functions:    23
                     number of shells:    12
          Convergence on energy requested:  1.00D-06
          Convergence on density requested:  1.00D-05
          Convergence on gradient requested:  5.00D-04
 
              XC Information
              --------------
                         B3LYP Method XC Potential
                     Hartree-Fock (Exact) Exchange  0.200          
                        Slater Exchange Functional  0.800 local    
                    Becke 1988 Exchange Functional  0.720 non-local
              Lee-Yang-Parr Correlation Functional  0.810          
                  VWN I RPA Correlation Functional  0.190 local    
 
             Grid Information
             ----------------
          Grid used for XC integration:  medium    
          Radial quadrature: Mura-Knowles        
          Angular quadrature: Lebedev. 
          Tag              B.-S. Rad. Rad. Pts. Rad. Cut. Ang. Pts.
          ---              ---------- --------- --------- ---------
          O                   0.60       49           7.0       434
          H                   0.35       45           9.0       434
          Grid pruning is: on 
          Number of quadrature shells:   139
          Spatial weights used:  Erf1
 
          Convergence Information
          -----------------------
          Convergence aids based upon iterative change in 
          total energy or number of iterations. 
          Levelshifting, if invoked, occurs when the 
          HOMO/LUMO gap drops below (HL_TOL):  1.00D-02
          DIIS, if invoked, will attempt to extrapolate 
          using up to (NFOCK): 10 stored Fock matrices.

                    Damping( 0%)  Levelshifting(0.5)       DIIS
                  --------------- ------------------- ---------------
          dE  on:    start            ASAP                start   
          dE off:    2 iters         30 iters            30 iters 

 
      Screening Tolerance Information
      -------------------------------
          Density screening/tol_rho:  1.00D-10
          AO Gaussian exp screening on grid/accAOfunc:  14
          CD Gaussian exp screening on grid/accCDfunc:  20
          XC Gaussian exp screening on grid/accXCfunc:  20
          Schwarz screening/accCoul:  1.00D-08

 
 
                            NWChem DFT Gradient Module
                            --------------------------
 
 
                            water molecule optimization
 
 

  charge          =   0.00
  wavefunction    = closed shell

  Using symmetry


                         DFT ENERGY GRADIENTS

    atom               coordinates                        gradient
                 x          y          z           x          y          z
   1 O       0.419261   0.122121   0.000000    0.077278  -0.004597   0.000000
   2 H      -2.054029   2.526932   0.000000   -0.055348   0.060586   0.000000
   3 H      -1.300060  -3.503903   0.000000   -0.021930  -0.055989   0.000000
 
                 ----------------------------------------
                 |  Time  |  1-e(secs)   |  2-e(secs)   |
                 ----------------------------------------
                 |  CPU   |       0.00   |       0.00   |
                 ----------------------------------------
                 |  WALL  |       0.00   |       0.00   |
                 ----------------------------------------

@ Step       Energy      Delta E   Gmax     Grms     Xrms     Xmax   Walltime
@ ---- ---------------- -------- -------- -------- -------- -------- --------
@    0     -76.08122220  0.0D+00  0.07728  0.04261  0.00000  0.00000      1.6
                                                                    

 Restricting large step in mode    2 eval= 2.3D-01 step=-3.8D-01 new=-3.0D-01
 Restricting large step in mode    3 eval= 2.9D-01 step= 3.2D-01 new= 3.0D-01
 
                                 NWChem DFT Module
                                 -----------------
 
 
                            water molecule optimization
 
 


 Summary of "ao basis" -> "ao basis" (cartesian)
 ------------------------------------------------------------------------------
       Tag                 Description            Shells   Functions and Types
 ---------------- ------------------------------  ------  ---------------------
 O                          6-31+G*                  8       19   4s3p1d
 H                          6-31+G*                  2        2   2s


      Symmetry analysis of basis
      --------------------------
 
        a'         18
        a"          5
 
  Caching 1-el integrals 
 
            General Information
            -------------------
          SCF calculation type: DFT
          Wavefunction type:  closed shell.
          No. of atoms     :     3
          No. of electrons :    10
           Alpha electrons :     5
            Beta electrons :     5
          Charge           :     0
          Spin multiplicity:     1
          Use of symmetry is: on ; symmetry adaption is: on 
          Maximum number of iterations:  30
          AO basis - number of functions:    23
                     number of shells:    12
          Convergence on energy requested:  1.00D-06
          Convergence on density requested:  1.00D-05
          Convergence on gradient requested:  5.00D-04
 
              XC Information
              --------------
                         B3LYP Method XC Potential
                     Hartree-Fock (Exact) Exchange  0.200          
                        Slater Exchange Functional  0.800 local    
                    Becke 1988 Exchange Functional  0.720 non-local
              Lee-Yang-Parr Correlation Functional  0.810          
                  VWN I RPA Correlation Functional  0.190 local    
 
             Grid Information
             ----------------
          Grid used for XC integration:  medium    
          Radial quadrature: Mura-Knowles        
          Angular quadrature: Lebedev. 
          Tag              B.-S. Rad. Rad. Pts. Rad. Cut. Ang. Pts.
          ---              ---------- --------- --------- ---------
          O                   0.60       49           7.0       434
          H                   0.35       45           8.0       434
          Grid pruning is: on 
          Number of quadrature shells:   139
          Spatial weights used:  Erf1
 
          Convergence Information
          -----------------------
          Convergence aids based upon iterative change in 
          total energy or number of iterations. 
          Levelshifting, if invoked, occurs when the 
          HOMO/LUMO gap drops below (HL_TOL):  1.00D-02
          DIIS, if invoked, will attempt to extrapolate 
          using up to (NFOCK): 10 stored Fock matrices.

                    Damping( 0%)  Levelshifting(0.5)       DIIS
                  --------------- ------------------- ---------------
          dE  on:    start            ASAP                start   
          dE off:    2 iters         30 iters            30 iters 

 
      Screening Tolerance Information
      -------------------------------
          Density screening/tol_rho:  1.00D-10
          AO Gaussian exp screening on grid/accAOfunc:  14
          CD Gaussian exp screening on grid/accCDfunc:  20
          XC Gaussian exp screening on grid/accXCfunc:  20
          Schwarz screening/accCoul:  1.00D-08


 Loading old vectors from job with title :

water molecule optimization

 
      Symmetry analysis of molecular orbitals - initial
      -------------------------------------------------
 
  Numbering of irreducible representations: 
 
     1 a'          2 a"      
 
  Orbital symmetries:
 
     1 a'          2 a'          3 a'          4 a'          5 a"      
     6 a'          7 a'          8 a'          9 a"         10 a'      
    11 a'         12 a'         13 a'         14 a'         15 a"      
 
   Time after variat. SCF:      1.7
   Time prior to 1st pass:      1.7

 #quartets = 3.079D+03 #integrals = 1.647D+04 #direct =  0.0% #cached =100.0%


 Integral file          = /scratch.global/lever046/nwchem/nwc_h2o_b3lyp_nosmd_ram.aoints.0
 Record size in doubles =    65536    No. of integs per rec  =    43688
 Max. records in memory =        2    Max. records in file   = 53487945
 No. of bits per label  =        8    No. of bits per value  =       64


File balance: exchanges=     0  moved=     0  time=   0.0


 Grid_pts file          = /scratch.global/lever046/nwchem/nwc_h2o_b3lyp_nosmd_ram.gridpts.0
 Record size in doubles =  12289        No. of grid_pts per rec  =   3070
 Max. records in memory =      4        Max. recs in file   = 285245833


           Memory utilization after 1st SCF pass: 
           Heap Space remaining (MW):       12.93            12925246
          Stack Space remaining (MW):       13.11            13106924

   convergence    iter        energy       DeltaE   RMS-Dens  Diis-err    time
 ---------------- ----- ----------------- --------- --------- ---------  ------
 d= 0,ls=0.0,diis     1    -76.1370580476 -8.11D+01  9.50D-03  1.15D-02     2.4
 d= 0,ls=0.0,diis     2    -76.1232688073  1.38D-02  6.97D-03  1.35D-01     2.5
 d= 0,ls=0.0,diis     3    -76.1396002863 -1.63D-02  8.75D-04  1.27D-04     2.5
 d= 0,ls=0.0,diis     4    -76.1396144249 -1.41D-05  5.22D-04  7.38D-05     2.5
 d= 0,ls=0.0,diis     5    -76.1396320978 -1.77D-05  1.52D-04  1.99D-05     2.5
 d= 0,ls=0.0,diis     6    -76.1396362304 -4.13D-06  2.18D-05  1.62D-07     2.5
 d= 0,ls=0.0,diis     7    -76.1396362604 -3.00D-08  5.85D-06  5.05D-08     2.5


         Total DFT energy =      -76.139636260408
      One electron energy =     -114.803556483002
           Coulomb energy =       42.570462343360
    Exchange-Corr. energy =       -8.908449078223
 Nuclear repulsion energy =        5.001906957457

 Numeric. integr. density =       10.000004113579

     Total iterative time =      0.9s


 
                  Occupations of the irreducible representations
                  ----------------------------------------------
 
                     irrep           alpha         beta
                     --------     --------     --------
                     a'                4.0          4.0
                     a"                1.0          1.0
 
 
                       DFT Final Molecular Orbital Analysis
                       ------------------------------------
 
 Vector    1  Occ=2.000000D+00  E=-1.923393D+01  Symmetry=a'
              MO Center=  8.9D-02,  6.9D-02, -3.1D-28, r^2= 1.5D-02
   Bfn.  Coefficient  Atom+Function         Bfn.  Coefficient  Atom+Function  
  ----- ------------  ---------------      ----- ------------  ---------------
     1      0.992919  1 O  s                  2      0.025346  1 O  s          
 
 Vector    2  Occ=2.000000D+00  E=-8.941575D-01  Symmetry=a'
              MO Center=  4.1D-02,  8.9D-02, -7.3D-17, r^2= 4.9D-01
   Bfn.  Coefficient  Atom+Function         Bfn.  Coefficient  Atom+Function  
  ----- ------------  ---------------      ----- ------------  ---------------
     6      0.551120  1 O  s                  2      0.531157  1 O  s          
     1     -0.232662  1 O  s                 20      0.041845  2 H  s          
     3     -0.028322  1 O  px                 7     -0.025410  1 O  px         
 
 Vector    3  Occ=2.000000D+00  E=-3.788272D-01  Symmetry=a'
              MO Center= -2.8D-01,  2.7D-01,  1.1D-16, r^2= 1.5D+00
   Bfn.  Coefficient  Atom+Function         Bfn.  Coefficient  Atom+Function  
  ----- ------------  ---------------      ----- ------------  ---------------
     4      0.419813  1 O  py                21      0.284739  2 H  s          
     8      0.261515  1 O  py                 3     -0.245745  1 O  px         
    20      0.242009  2 H  s                  7     -0.149245  1 O  px         
    23     -0.142189  3 H  s                 22     -0.111292  3 H  s          
     6     -0.079220  1 O  s                  2     -0.060126  1 O  s          
 
 Vector    4  Occ=2.000000D+00  E=-3.316816D-01  Symmetry=a'
              MO Center= -2.0D-01, -4.4D-01, -7.9D-17, r^2= 1.7D+00
   Bfn.  Coefficient  Atom+Function         Bfn.  Coefficient  Atom+Function  
  ----- ------------  ---------------      ----- ------------  ---------------
     3      0.449414  1 O  px                23     -0.313547  3 H  s          
     7      0.273691  1 O  px                22     -0.228509  3 H  s          
     4      0.227018  1 O  py                 8      0.141663  1 O  py         
     6      0.125606  1 O  s                 21     -0.116877  2 H  s          
    20     -0.093676  2 H  s                 11      0.083079  1 O  px         
 
 Vector    5  Occ=2.000000D+00  E=-3.011684D-01  Symmetry=a"
              MO Center=  8.4D-02,  7.0D-02,  2.2D-15, r^2= 6.8D-01
   Bfn.  Coefficient  Atom+Function         Bfn.  Coefficient  Atom+Function  
  ----- ------------  ---------------      ----- ------------  ---------------
     5      0.669831  1 O  pz                 9      0.404469  1 O  pz         
    13      0.129253  1 O  pz         
 
 Vector    6  Occ=0.000000D+00  E=-1.791050D-01  Symmetry=a'
              MO Center= -3.7D-01, -9.0D-01, -6.6D-16, r^2= 2.1D+00
   Bfn.  Coefficient  Atom+Function         Bfn.  Coefficient  Atom+Function  
  ----- ------------  ---------------      ----- ------------  ---------------
    23      0.604432  3 H  s                  3      0.339377  1 O  px         
    22      0.310998  3 H  s                  4      0.284426  1 O  py         
     7      0.236783  1 O  px                 6     -0.210232  1 O  s          
     8      0.198576  1 O  py                21      0.175716  2 H  s          
    20      0.088098  2 H  s                 11      0.076446  1 O  px         
 
 Vector    7  Occ=0.000000D+00  E=-1.004029D-01  Symmetry=a'
              MO Center= -6.1D-01,  7.0D-01,  1.0D-15, r^2= 1.9D+00
   Bfn.  Coefficient  Atom+Function         Bfn.  Coefficient  Atom+Function  
  ----- ------------  ---------------      ----- ------------  ---------------
    21      0.729702  2 H  s                  4     -0.392196  1 O  py         
     8     -0.334865  1 O  py                20      0.299651  2 H  s          
     6     -0.282114  1 O  s                  3      0.263375  1 O  px         
     7      0.223943  1 O  px                23     -0.212871  3 H  s          
    22     -0.094675  3 H  s                 10      0.087162  1 O  s          
 
 Vector    8  Occ=0.000000D+00  E= 1.498091D-01  Symmetry=a'
              MO Center=  1.1D+00,  2.7D-01,  3.3D-15, r^2= 3.3D+00
   Bfn.  Coefficient  Atom+Function         Bfn.  Coefficient  Atom+Function  
  ----- ------------  ---------------      ----- ------------  ---------------
    10      1.310509  1 O  s                  6     -0.875353  1 O  s          
    11      0.729794  1 O  px                 7     -0.338774  1 O  px         
    21     -0.227729  2 H  s                  3     -0.204555  1 O  px         
    12      0.157219  1 O  py                23     -0.112113  3 H  s          
     1      0.067522  1 O  s                 20     -0.057386  2 H  s          
 
 Vector    9  Occ=0.000000D+00  E= 1.602544D-01  Symmetry=a"
              MO Center=  8.9D-02,  6.9D-02, -4.3D-14, r^2= 4.8D+00
   Bfn.  Coefficient  Atom+Function         Bfn.  Coefficient  Atom+Function  
  ----- ------------  ---------------      ----- ------------  ---------------
    13      1.200620  1 O  pz                 9     -0.457051  1 O  pz         
     5     -0.265933  1 O  pz         
 
 Vector   10  Occ=0.000000D+00  E= 1.910275D-01  Symmetry=a'
              MO Center= -6.1D-01,  4.0D-02,  3.1D-14, r^2= 4.4D+00
   Bfn.  Coefficient  Atom+Function         Bfn.  Coefficient  Atom+Function  
  ----- ------------  ---------------      ----- ------------  ---------------
    10      1.723822  1 O  s                 11     -1.292728  1 O  px         
    21     -1.184854  2 H  s                  6     -0.859267  1 O  s          
    12      0.643381  1 O  py                23     -0.319265  3 H  s          
     7      0.258184  1 O  px                20     -0.140650  2 H  s          
     3      0.101505  1 O  px                 8     -0.069593  1 O  py         
 
 Vector   11  Occ=0.000000D+00  E= 2.006297D-01  Symmetry=a'
              MO Center=  3.5D-01, -7.1D-02,  9.3D-15, r^2= 4.9D+00
   Bfn.  Coefficient  Atom+Function         Bfn.  Coefficient  Atom+Function  
  ----- ------------  ---------------      ----- ------------  ---------------
    12      1.601929  1 O  py                23      0.878823  3 H  s          
    10     -0.732157  1 O  s                  6      0.487031  1 O  s          
     8     -0.420126  1 O  py                21     -0.290248  2 H  s          
    11      0.257326  1 O  px                 4     -0.174297  1 O  py         
    22      0.094277  3 H  s                  7     -0.089881  1 O  px         
 
 Vector   12  Occ=0.000000D+00  E= 7.455948D-01  Symmetry=a'
              MO Center= -9.9D-01,  1.2D+00,  3.4D-16, r^2= 1.9D+00
   Bfn.  Coefficient  Atom+Function         Bfn.  Coefficient  Atom+Function  
  ----- ------------  ---------------      ----- ------------  ---------------
    21      1.727947  2 H  s                 20     -1.066870  2 H  s          
     6     -0.818492  1 O  s                 10     -0.473006  1 O  s          
     7      0.421536  1 O  px                 2      0.401605  1 O  s          
     8     -0.380260  1 O  py                 3     -0.287588  1 O  px         
     4      0.265650  1 O  py                11      0.240244  1 O  px         
 
 Vector   13  Occ=0.000000D+00  E= 7.907698D-01  Symmetry=a'
              MO Center= -6.9D-01, -1.8D+00, -1.0D-15, r^2= 1.6D+00
   Bfn.  Coefficient  Atom+Function         Bfn.  Coefficient  Atom+Function  
  ----- ------------  ---------------      ----- ------------  ---------------
    23      1.505030  3 H  s                 22     -1.245568  3 H  s          
     8      0.390248  1 O  py                10     -0.298129  1 O  s          
     6     -0.246563  1 O  s                  4     -0.236626  1 O  py         
    12      0.224364  1 O  py                21     -0.171224  2 H  s          
    20      0.132714  2 H  s                  2      0.130185  1 O  s          
 
 Vector   14  Occ=0.000000D+00  E= 1.124752D+00  Symmetry=a'
              MO Center=  5.0D-02,  1.6D-02,  4.6D-17, r^2= 1.8D+00
   Bfn.  Coefficient  Atom+Function         Bfn.  Coefficient  Atom+Function  
  ----- ------------  ---------------      ----- ------------  ---------------
     7      1.039398  1 O  px                 8      0.980327  1 O  py         
     3     -0.684443  1 O  px                 4     -0.650671  1 O  py         
    12     -0.587980  1 O  py                11     -0.569261  1 O  px         
    23     -0.451936  3 H  s                 22      0.328855  3 H  s          
    10      0.245240  1 O  s                  6     -0.176621  1 O  s          
 
 Vector   15  Occ=0.000000D+00  E= 1.129473D+00  Symmetry=a"
              MO Center=  8.7D-02,  7.0D-02, -3.9D-16, r^2= 1.8D+00
   Bfn.  Coefficient  Atom+Function         Bfn.  Coefficient  Atom+Function  
  ----- ------------  ---------------      ----- ------------  ---------------
     9      1.469268  1 O  pz                 5     -0.956580  1 O  pz         
    13     -0.701160  1 O  pz         
 
 Vector   16  Occ=0.000000D+00  E= 1.182898D+00  Symmetry=a'
              MO Center=  5.2D-01, -3.6D-01,  7.0D-16, r^2= 1.6D+00
   Bfn.  Coefficient  Atom+Function         Bfn.  Coefficient  Atom+Function  
  ----- ------------  ---------------      ----- ------------  ---------------
     6      2.245153  1 O  s                  2     -1.035756  1 O  s          
    10     -0.840339  1 O  s                  7      0.822205  1 O  px         
     8     -0.768796  1 O  py                 3     -0.535802  1 O  px         
    12      0.531019  1 O  py                 4      0.504757  1 O  py         
    11     -0.389238  1 O  px                23      0.343444  3 H  s          
 
 Vector   17  Occ=0.000000D+00  E= 1.274114D+00  Symmetry=a'
              MO Center= -3.5D-01,  5.8D-01, -4.0D-15, r^2= 1.8D+00
   Bfn.  Coefficient  Atom+Function         Bfn.  Coefficient  Atom+Function  
  ----- ------------  ---------------      ----- ------------  ---------------
     6      2.799935  1 O  s                 10     -1.473801  1 O  s          
     2     -1.319366  1 O  s                 21      1.019374  2 H  s          
    20     -0.767867  2 H  s                  8      0.570379  1 O  py         
    11      0.483389  1 O  px                 7     -0.474183  1 O  px         
    12     -0.442623  1 O  py                 4     -0.380259  1 O  py         
 
 Vector   18  Occ=0.000000D+00  E= 1.790573D+00  Symmetry=a'
              MO Center=  9.7D-02,  6.9D-02, -4.0D-18, r^2= 6.3D-01
   Bfn.  Coefficient  Atom+Function         Bfn.  Coefficient  Atom+Function  
  ----- ------------  ---------------      ----- ------------  ---------------
    14      0.933429  1 O  dxx               17     -0.718721  1 O  dyy        
    15      0.342901  1 O  dxy               19     -0.237543  1 O  dzz        
    10     -0.116808  1 O  s                 23      0.111652  3 H  s          
     6      0.099487  1 O  s                 12      0.047114  1 O  py         
    11      0.037028  1 O  px                 2     -0.034629  1 O  s          
 
 Vector   19  Occ=0.000000D+00  E= 1.800630D+00  Symmetry=a"
              MO Center=  9.1D-02,  6.4D-02, -2.1D-21, r^2= 6.1D-01
   Bfn.  Coefficient  Atom+Function         Bfn.  Coefficient  Atom+Function  
  ----- ------------  ---------------      ----- ------------  ---------------
    18      1.594861  1 O  dyz               16     -0.675414  1 O  dxz        
 
 Vector   20  Occ=0.000000D+00  E= 1.810062D+00  Symmetry=a"
              MO Center=  9.5D-02,  7.1D-02,  8.8D-22, r^2= 6.1D-01
   Bfn.  Coefficient  Atom+Function         Bfn.  Coefficient  Atom+Function  
  ----- ------------  ---------------      ----- ------------  ---------------
    16      1.594800  1 O  dxz               18      0.675539  1 O  dyz        
 
 Vector   21  Occ=0.000000D+00  E= 1.826791D+00  Symmetry=a'
              MO Center=  8.6D-02,  6.1D-02, -6.1D-16, r^2= 7.2D-01
   Bfn.  Coefficient  Atom+Function         Bfn.  Coefficient  Atom+Function  
  ----- ------------  ---------------      ----- ------------  ---------------
    15      1.236890  1 O  dxy               19     -0.620952  1 O  dzz        
    17      0.602804  1 O  dyy               23     -0.271764  3 H  s          
     6     -0.222720  1 O  s                 10      0.190733  1 O  s          
    12     -0.181696  1 O  py                 2      0.090249  1 O  s          
    22      0.075364  3 H  s                 14      0.072272  1 O  dxx        
 
 Vector   22  Occ=0.000000D+00  E= 1.852754D+00  Symmetry=a'
              MO Center=  6.0D-02,  9.9D-02,  1.2D-15, r^2= 6.9D-01
   Bfn.  Coefficient  Atom+Function         Bfn.  Coefficient  Atom+Function  
  ----- ------------  ---------------      ----- ------------  ---------------
    15      1.187820  1 O  dxy               19      0.719054  1 O  dzz        
    17     -0.425930  1 O  dyy               14     -0.358192  1 O  dxx        
    10     -0.199626  1 O  s                 20      0.164712  2 H  s          
    21      0.155974  2 H  s                  6      0.114873  1 O  s          
    11      0.101613  1 O  px                12     -0.093768  1 O  py         
 
 Vector   23  Occ=0.000000D+00  E= 3.665773D+00  Symmetry=a'
              MO Center=  9.1D-02,  6.6D-02,  1.0D-18, r^2= 1.1D+00
   Bfn.  Coefficient  Atom+Function         Bfn.  Coefficient  Atom+Function  
  ----- ------------  ---------------      ----- ------------  ---------------
     6      4.001722  1 O  s                 17     -1.622303  1 O  dyy        
    19     -1.618565  1 O  dzz               14     -1.609137  1 O  dxx        
    10     -1.026415  1 O  s                  1     -0.484025  1 O  s          
    21      0.178536  2 H  s                  2      0.160875  1 O  s          
    20     -0.147094  2 H  s                 23      0.143215  3 H  s          
 

 center of mass
 --------------
 x =  -0.02366709 y =   0.06039001 z =   0.00000000

 moments of inertia (a.u.)
 ------------------
          16.658391713921          -0.081085287769           0.000000000000
          -0.081085287769           5.511829397748           0.000000000000
           0.000000000000           0.000000000000          22.170221111668
 
     Multipole analysis of the density
     ---------------------------------
 
     L   x y z        total         alpha         beta         nuclear
     -   - - -        -----         -----         ----         -------
     0   0 0 0     -0.000000     -5.000000     -5.000000     10.000000
 
     1   1 0 0     -0.746046      0.503190      0.503190     -1.752427
     1   0 1 0     -0.167390     -0.111475     -0.111475      0.055559
     1   0 0 1      0.000000      0.000000      0.000000      0.000000
 
     2   2 0 0     -4.684254     -4.969365     -4.969365      5.254476
     2   1 1 0     -0.296098     -0.089051     -0.089051     -0.117996
     2   1 0 1      0.000000      0.000000      0.000000      0.000000
     2   0 2 0     -1.296285     -8.878688     -8.878688     16.461091
     2   0 1 1      0.000000      0.000000      0.000000      0.000000
     2   0 0 2     -6.710827     -3.355413     -3.355413      0.000000
 

 Parallel integral file used       8 records with       0 large values

 Line search: 
     step= 1.00 grad=-5.4D-02 hess=-4.1D-03 energy=    -76.139636 mode=negative
 new step= 2.00                   predicted energy=    -76.206285

          --------
          Step   1
          --------
 
 
                         Geometry "geometry" -> "geometry"
                         ---------------------------------
 
 Output coordinates in angstroms (scale by  1.889725989 to convert to a.u.)
 
  No.       Tag          Charge          X              Y              Z
 ---- ---------------- ---------- -------------- -------------- --------------
    1 O                    8.0000    -0.04309207     0.07302407     0.00000000
    2 H                    1.0000    -0.89811301     1.12015766     0.00000000
    3 H                    1.0000    -0.61183898    -1.64554898     0.00000000
 
      Atomic Mass 
      ----------- 
 
      O                 15.994910
      H                  1.007825
 

 Effective nuclear repulsion energy (a.u.)       5.6604441777

            Nuclear Dipole moment (a.u.) 
            ----------------------------
        X                 Y               Z
 ---------------- ---------------- ----------------
    -3.5048531383     0.1111182684     0.0000000000
 
      Symmetry information
      --------------------
 
 Group name             Cs        
 Group number              2
 Group order               2
 No. of unique centers     3
 
      Symmetry unique atoms
 
     1    2    3
 
 
                                 NWChem DFT Module
                                 -----------------
 
 
                            water molecule optimization
 
 


 Summary of "ao basis" -> "ao basis" (cartesian)
 ------------------------------------------------------------------------------
       Tag                 Description            Shells   Functions and Types
 ---------------- ------------------------------  ------  ---------------------
 O                          6-31+G*                  8       19   4s3p1d
 H                          6-31+G*                  2        2   2s


      Symmetry analysis of basis
      --------------------------
 
        a'         18
        a"          5
 
  Caching 1-el integrals 
 
            General Information
            -------------------
          SCF calculation type: DFT
          Wavefunction type:  closed shell.
          No. of atoms     :     3
          No. of electrons :    10
           Alpha electrons :     5
            Beta electrons :     5
          Charge           :     0
          Spin multiplicity:     1
          Use of symmetry is: on ; symmetry adaption is: on 
          Maximum number of iterations:  30
          AO basis - number of functions:    23
                     number of shells:    12
          Convergence on energy requested:  1.00D-06
          Convergence on density requested:  1.00D-05
          Convergence on gradient requested:  5.00D-04
 
              XC Information
              --------------
                         B3LYP Method XC Potential
                     Hartree-Fock (Exact) Exchange  0.200          
                        Slater Exchange Functional  0.800 local    
                    Becke 1988 Exchange Functional  0.720 non-local
              Lee-Yang-Parr Correlation Functional  0.810          
                  VWN I RPA Correlation Functional  0.190 local    
 
             Grid Information
             ----------------
          Grid used for XC integration:  medium    
          Radial quadrature: Mura-Knowles        
          Angular quadrature: Lebedev. 
          Tag              B.-S. Rad. Rad. Pts. Rad. Cut. Ang. Pts.
          ---              ---------- --------- --------- ---------
          O                   0.60       49           7.0       434
          H                   0.35       45           8.0       434
          Grid pruning is: on 
          Number of quadrature shells:   139
          Spatial weights used:  Erf1
 
          Convergence Information
          -----------------------
          Convergence aids based upon iterative change in 
          total energy or number of iterations. 
          Levelshifting, if invoked, occurs when the 
          HOMO/LUMO gap drops below (HL_TOL):  1.00D-02
          DIIS, if invoked, will attempt to extrapolate 
          using up to (NFOCK): 10 stored Fock matrices.

                    Damping( 0%)  Levelshifting(0.5)       DIIS
                  --------------- ------------------- ---------------
          dE  on:    start            ASAP                start   
          dE off:    2 iters         30 iters            30 iters 

 
      Screening Tolerance Information
      -------------------------------
          Density screening/tol_rho:  1.00D-10
          AO Gaussian exp screening on grid/accAOfunc:  14
          CD Gaussian exp screening on grid/accCDfunc:  20
          XC Gaussian exp screening on grid/accXCfunc:  20
          Schwarz screening/accCoul:  1.00D-08


 Loading old vectors from job with title :

water molecule optimization

 
      Symmetry analysis of molecular orbitals - initial
      -------------------------------------------------
 
  Numbering of irreducible representations: 
 
     1 a'          2 a"      
 
  Orbital symmetries:
 
     1 a'          2 a'          3 a'          4 a'          5 a"      
     6 a'          7 a'          8 a'          9 a"         10 a'      
    11 a'         12 a'         13 a'         14 a'         15 a"      
 
   Time after variat. SCF:      2.7
   Time prior to 1st pass:      2.7

 #quartets = 3.081D+03 #integrals = 1.648D+04 #direct =  0.0% #cached =100.0%


 Integral file          = /scratch.global/lever046/nwchem/nwc_h2o_b3lyp_nosmd_ram.aoints.0
 Record size in doubles =    65536    No. of integs per rec  =    43688
 Max. records in memory =        2    Max. records in file   = 53487945
 No. of bits per label  =        8    No. of bits per value  =       64


File balance: exchanges=     0  moved=     0  time=   0.0


 Grid_pts file          = /scratch.global/lever046/nwchem/nwc_h2o_b3lyp_nosmd_ram.gridpts.0
 Record size in doubles =  12289        No. of grid_pts per rec  =   3070
 Max. records in memory =      4        Max. recs in file   = 285245833


           Memory utilization after 1st SCF pass: 
           Heap Space remaining (MW):       12.93            12925246
          Stack Space remaining (MW):       13.11            13106924

   convergence    iter        energy       DeltaE   RMS-Dens  Diis-err    time
 ---------------- ----- ----------------- --------- --------- ---------  ------
 d= 0,ls=0.0,diis     1    -76.1981886472 -8.19D+01  1.06D-02  2.28D-02     3.5
 d= 0,ls=0.0,diis     2    -76.1894429325  8.75D-03  7.78D-03  1.16D-01     3.6
 d= 0,ls=0.0,diis     3    -76.2027947027 -1.34D-02  1.51D-03  3.53D-03     3.6
 d= 0,ls=0.0,diis     4    -76.2032448007 -4.50D-04  3.09D-04  2.39D-05     3.6
 d= 0,ls=0.0,diis     5    -76.2032477169 -2.92D-06  1.36D-04  1.62D-05     3.6
 d= 0,ls=0.0,diis     6    -76.2032507318 -3.01D-06  1.80D-05  1.46D-07     3.6
 d= 0,ls=0.0,diis     7    -76.2032507574 -2.56D-08  3.77D-06  2.91D-08     3.6


         Total DFT energy =      -76.203250757400
      One electron energy =     -116.169117289418
           Coulomb energy =       43.273800108472
    Exchange-Corr. energy =       -8.968377754200
 Nuclear repulsion energy =        5.660444177747

 Numeric. integr. density =       10.000000680704

     Total iterative time =      0.9s


 
                  Occupations of the irreducible representations
                  ----------------------------------------------
 
                     irrep           alpha         beta
                     --------     --------     --------
                     a'                4.0          4.0
                     a"                1.0          1.0
 
 
                       DFT Final Molecular Orbital Analysis
                       ------------------------------------
 
 Vector    1  Occ=2.000000D+00  E=-1.921992D+01  Symmetry=a'
              MO Center= -4.3D-02,  7.3D-02,  2.0D-29, r^2= 1.5D-02
   Bfn.  Coefficient  Atom+Function         Bfn.  Coefficient  Atom+Function  
  ----- ------------  ---------------      ----- ------------  ---------------
     1      0.992911  1 O  s                  2      0.025404  1 O  s          
 
 Vector    2  Occ=2.000000D+00  E=-9.032344D-01  Symmetry=a'
              MO Center= -1.2D-01,  1.2D-01,  3.5D-17, r^2= 5.1D-01
   Bfn.  Coefficient  Atom+Function         Bfn.  Coefficient  Atom+Function  
  ----- ------------  ---------------      ----- ------------  ---------------
     6      0.541762  1 O  s                  2      0.518241  1 O  s          
     1     -0.228835  1 O  s                 20      0.072310  2 H  s          
     3     -0.044501  1 O  px                 7     -0.035482  1 O  px         
 
 Vector    3  Occ=2.000000D+00  E=-4.098089D-01  Symmetry=a'
              MO Center= -3.1D-01,  1.4D-01, -1.9D-16, r^2= 1.4D+00
   Bfn.  Coefficient  Atom+Function         Bfn.  Coefficient  Atom+Function  
  ----- ------------  ---------------      ----- ------------  ---------------
     4      0.435499  1 O  py                 8      0.270254  1 O  py         
    20      0.246342  2 H  s                 21      0.240414  2 H  s          
     3     -0.218641  1 O  px                23     -0.153690  3 H  s          
    22     -0.131291  3 H  s                  7     -0.127418  1 O  px         
     6     -0.116597  1 O  s                  2     -0.076074  1 O  s          
 
 Vector    4  Occ=2.000000D+00  E=-3.323695D-01  Symmetry=a'
              MO Center= -2.3D-01, -3.3D-01, -6.0D-18, r^2= 1.5D+00
   Bfn.  Coefficient  Atom+Function         Bfn.  Coefficient  Atom+Function  
  ----- ------------  ---------------      ----- ------------  ---------------
     3      0.482635  1 O  px                 7      0.296477  1 O  px         
    23     -0.287360  3 H  s                 22     -0.217533  3 H  s          
     4      0.187026  1 O  py                 6      0.160578  1 O  s          
     8      0.121579  1 O  py                21     -0.108865  2 H  s          
    20     -0.099943  2 H  s                  2      0.096055  1 O  s          
 
 Vector    5  Occ=2.000000D+00  E=-2.989464D-01  Symmetry=a"
              MO Center= -5.1D-02,  7.6D-02,  4.5D-16, r^2= 7.0D-01
   Bfn.  Coefficient  Atom+Function         Bfn.  Coefficient  Atom+Function  
  ----- ------------  ---------------      ----- ------------  ---------------
     5      0.662765  1 O  pz                 9      0.408918  1 O  pz         
    13      0.134212  1 O  pz         
 
 Vector    6  Occ=0.000000D+00  E=-1.619995D-01  Symmetry=a'
              MO Center= -4.1D-01, -9.0D-01,  2.8D-16, r^2= 2.0D+00
   Bfn.  Coefficient  Atom+Function         Bfn.  Coefficient  Atom+Function  
  ----- ------------  ---------------      ----- ------------  ---------------
    23      0.646729  3 H  s                  3      0.314986  1 O  px         
    22      0.314772  3 H  s                  6     -0.288863  1 O  s          
     4      0.286415  1 O  py                 7      0.231767  1 O  px         
     8      0.214993  1 O  py                21      0.181245  2 H  s          
    20      0.090789  2 H  s                  2     -0.080293  1 O  s          
 
 Vector    7  Occ=0.000000D+00  E=-3.376779D-02  Symmetry=a'
              MO Center= -6.6D-01,  7.5D-01, -3.9D-16, r^2= 1.8D+00
   Bfn.  Coefficient  Atom+Function         Bfn.  Coefficient  Atom+Function  
  ----- ------------  ---------------      ----- ------------  ---------------
    21      0.837801  2 H  s                  6     -0.488853  1 O  s          
     8     -0.411462  1 O  py                 4     -0.394686  1 O  py         
    20      0.270786  2 H  s                  7      0.241949  1 O  px         
    23     -0.240832  3 H  s                  3      0.236080  1 O  px         
    10      0.197401  1 O  s                 22     -0.087485  3 H  s          
 
 Vector    8  Occ=0.000000D+00  E= 1.555635D-01  Symmetry=a'
              MO Center=  9.2D-01,  2.0D-01,  6.5D-15, r^2= 3.6D+00
   Bfn.  Coefficient  Atom+Function         Bfn.  Coefficient  Atom+Function  
  ----- ------------  ---------------      ----- ------------  ---------------
    11      0.975378  1 O  px                10      0.919930  1 O  s          
     6     -0.624014  1 O  s                  7     -0.411940  1 O  px         
     3     -0.240199  1 O  px                12      0.120086  1 O  py         
    21     -0.106415  2 H  s                  1      0.050389  1 O  s          
    14      0.042177  1 O  dxx                2     -0.038977  1 O  s          
 
 Vector    9  Occ=0.000000D+00  E= 1.590299D-01  Symmetry=a"
              MO Center= -4.3D-02,  7.3D-02,  4.2D-14, r^2= 4.8D+00
   Bfn.  Coefficient  Atom+Function         Bfn.  Coefficient  Atom+Function  
  ----- ------------  ---------------      ----- ------------  ---------------
    13      1.200075  1 O  pz                 9     -0.460840  1 O  pz         
     5     -0.270181  1 O  pz         
 
 Vector   10  Occ=0.000000D+00  E= 1.767854D-01  Symmetry=a'
              MO Center= -8.2D-01,  1.6D-01, -4.6D-14, r^2= 4.1D+00
   Bfn.  Coefficient  Atom+Function         Bfn.  Coefficient  Atom+Function  
  ----- ------------  ---------------      ----- ------------  ---------------
    10      2.112111  1 O  s                 21     -1.467481  2 H  s          
    11     -1.095985  1 O  px                 6     -0.850042  1 O  s          
    12      0.642535  1 O  py                23     -0.346807  3 H  s          
    20     -0.165827  2 H  s                  7      0.092897  1 O  px         
    19      0.067526  1 O  dzz               22     -0.060462  3 H  s          
 
 Vector   11  Occ=0.000000D+00  E= 1.987575D-01  Symmetry=a'
              MO Center=  3.4D-01, -5.7D-02, -2.6D-15, r^2= 4.9D+00
   Bfn.  Coefficient  Atom+Function         Bfn.  Coefficient  Atom+Function  
  ----- ------------  ---------------      ----- ------------  ---------------
    12      1.743861  1 O  py                23      0.983075  3 H  s          
    10     -0.695152  1 O  s                  6      0.520781  1 O  s          
    21     -0.496423  2 H  s                  8     -0.356304  1 O  py         
     4     -0.128539  1 O  py                11      0.106094  1 O  px         
    22      0.105700  3 H  s                  7     -0.072890  1 O  px         
 
 Vector   12  Occ=0.000000D+00  E= 7.582194D-01  Symmetry=a'
              MO Center= -8.4D-01,  6.7D-01, -1.0D-16, r^2= 2.7D+00
   Bfn.  Coefficient  Atom+Function         Bfn.  Coefficient  Atom+Function  
  ----- ------------  ---------------      ----- ------------  ---------------
    21      1.897126  2 H  s                  6     -1.055580  1 O  s          
    20     -0.939349  2 H  s                 10     -0.712333  1 O  s          
    23      0.581707  3 H  s                  2      0.508379  1 O  s          
    22     -0.463068  3 H  s                  7      0.433532  1 O  px         
     3     -0.319845  1 O  px                11      0.312216  1 O  px         
 
 Vector   13  Occ=0.000000D+00  E= 7.724349D-01  Symmetry=a'
              MO Center= -6.6D-01, -1.3D+00, -3.2D-16, r^2= 2.5D+00
   Bfn.  Coefficient  Atom+Function         Bfn.  Coefficient  Atom+Function  
  ----- ------------  ---------------      ----- ------------  ---------------
    23      1.459386  3 H  s                 22     -1.093724  3 H  s          
    21     -0.753690  2 H  s                  8      0.608917  1 O  py         
     4     -0.409022  1 O  py                12      0.362174  1 O  py         
    20      0.361426  2 H  s                  6     -0.185272  1 O  s          
     2      0.089783  1 O  s                 15     -0.072858  1 O  dxy        
 
 Vector   14  Occ=0.000000D+00  E= 1.128687D+00  Symmetry=a"
              MO Center= -4.7D-02,  7.6D-02, -5.5D-16, r^2= 1.8D+00
   Bfn.  Coefficient  Atom+Function         Bfn.  Coefficient  Atom+Function  
  ----- ------------  ---------------      ----- ------------  ---------------
     9      1.466679  1 O  pz                 5     -0.960295  1 O  pz         
    13     -0.701096  1 O  pz         
 
 Vector   15  Occ=0.000000D+00  E= 1.142018D+00  Symmetry=a'
              MO Center=  7.7D-02,  1.0D-01, -1.1D-17, r^2= 1.8D+00
   Bfn.  Coefficient  Atom+Function         Bfn.  Coefficient  Atom+Function  
  ----- ------------  ---------------      ----- ------------  ---------------
     7      1.240825  1 O  px                 3     -0.815914  1 O  px         
     8      0.663031  1 O  py                11     -0.656296  1 O  px         
     4     -0.453397  1 O  py                23     -0.450200  3 H  s          
     6      0.433589  1 O  s                 12     -0.419664  1 O  py         
    22      0.365808  3 H  s                  2     -0.204210  1 O  s          
 
 Vector   16  Occ=0.000000D+00  E= 1.206697D+00  Symmetry=a'
              MO Center=  2.0D-01, -5.6D-01,  1.6D-16, r^2= 1.6D+00
   Bfn.  Coefficient  Atom+Function         Bfn.  Coefficient  Atom+Function  
  ----- ------------  ---------------      ----- ------------  ---------------
     6      2.432423  1 O  s                  2     -1.143732  1 O  s          
    10     -1.036912  1 O  s                  8     -0.901376  1 O  py         
    12      0.665692  1 O  py                23      0.647509  3 H  s          
     4      0.589019  1 O  py                22     -0.475783  3 H  s          
     7      0.459386  1 O  px                19     -0.352941  1 O  dzz        
 
 Vector   17  Occ=0.000000D+00  E= 1.310190D+00  Symmetry=a'
              MO Center= -3.5D-01,  5.2D-01,  4.5D-16, r^2= 1.8D+00
   Bfn.  Coefficient  Atom+Function         Bfn.  Coefficient  Atom+Function  
  ----- ------------  ---------------      ----- ------------  ---------------
     6      2.497961  1 O  s                 10     -1.412928  1 O  s          
     2     -1.167196  1 O  s                 21      1.128731  2 H  s          
    20     -0.857590  2 H  s                  8      0.725327  1 O  py         
    12     -0.589720  1 O  py                 7     -0.507125  1 O  px         
    11      0.486910  1 O  px                 4     -0.430251  1 O  py         
 
 Vector   18  Occ=0.000000D+00  E= 1.790852D+00  Symmetry=a'
              MO Center= -2.7D-02,  7.0D-02,  4.5D-17, r^2= 6.4D-01
   Bfn.  Coefficient  Atom+Function         Bfn.  Coefficient  Atom+Function  
  ----- ------------  ---------------      ----- ------------  ---------------
    14      0.963014  1 O  dxx               17     -0.705906  1 O  dyy        
    19     -0.284929  1 O  dzz               23      0.152735  3 H  s          
    10     -0.127219  1 O  s                  6      0.104444  1 O  s          
    12      0.104925  1 O  py                 7      0.033082  1 O  px         
     2     -0.031321  1 O  s                  8     -0.029011  1 O  py         
 
 Vector   19  Occ=0.000000D+00  E= 1.791324D+00  Symmetry=a"
              MO Center= -4.0D-02,  6.4D-02,  2.2D-22, r^2= 6.1D-01
   Bfn.  Coefficient  Atom+Function         Bfn.  Coefficient  Atom+Function  
  ----- ------------  ---------------      ----- ------------  ---------------
    18      1.601227  1 O  dyz               16     -0.659818  1 O  dxz        
 
 Vector   20  Occ=0.000000D+00  E= 1.811325D+00  Symmetry=a"
              MO Center= -3.5D-02,  7.6D-02, -1.1D-21, r^2= 6.1D-01
   Bfn.  Coefficient  Atom+Function         Bfn.  Coefficient  Atom+Function  
  ----- ------------  ---------------      ----- ------------  ---------------
    16      1.601141  1 O  dxz               18      0.660160  1 O  dyz        
 
 Vector   21  Occ=0.000000D+00  E= 1.828018D+00  Symmetry=a'
              MO Center= -4.6D-02,  6.4D-02, -4.7D-17, r^2= 6.9D-01
   Bfn.  Coefficient  Atom+Function         Bfn.  Coefficient  Atom+Function  
  ----- ------------  ---------------      ----- ------------  ---------------
    15      0.969374  1 O  dxy               19     -0.772610  1 O  dzz        
    17      0.640450  1 O  dyy               23     -0.249704  3 H  s          
     6     -0.247063  1 O  s                 10      0.234138  1 O  s          
    14      0.212602  1 O  dxx               12     -0.163914  1 O  py         
     2      0.082648  1 O  s                 11     -0.059709  1 O  px         
 
 Vector   22  Occ=0.000000D+00  E= 1.969656D+00  Symmetry=a'
              MO Center= -1.6D-01,  2.1D-01, -5.4D-18, r^2= 7.5D-01
   Bfn.  Coefficient  Atom+Function         Bfn.  Coefficient  Atom+Function  
  ----- ------------  ---------------      ----- ------------  ---------------
    15      1.439625  1 O  dxy               20      0.572595  2 H  s          
    19      0.555833  1 O  dzz               17     -0.377622  1 O  dyy        
     6     -0.332256  1 O  s                  8     -0.260724  1 O  py         
     2      0.230604  1 O  s                  7      0.215604  1 O  px         
    21     -0.189869  2 H  s                 14     -0.135383  1 O  dxx        
 
 Vector   23  Occ=0.000000D+00  E= 3.658441D+00  Symmetry=a'
              MO Center= -4.0D-02,  7.0D-02,  1.7D-18, r^2= 1.1D+00
   Bfn.  Coefficient  Atom+Function         Bfn.  Coefficient  Atom+Function  
  ----- ------------  ---------------      ----- ------------  ---------------
     6      3.998068  1 O  s                 19     -1.639645  1 O  dzz        
    14     -1.607728  1 O  dxx               17     -1.604139  1 O  dyy        
    10     -0.976763  1 O  s                  1     -0.484907  1 O  s          
    23      0.159701  3 H  s                  2      0.157169  1 O  s          
    20     -0.131428  2 H  s                 22     -0.105243  3 H  s          
 

 center of mass
 --------------
 x =  -0.23198746 y =   0.06699463 z =   0.00000000

 moments of inertia (a.u.)
 ------------------
[...]
   Bfn.  Coefficient  Atom+Function         Bfn.  Coefficient  Atom+Function  
  ----- ------------  ---------------      ----- ------------  ---------------
    11      1.322172  1 O  px                 6     -0.708739  1 O  s          
    21      0.472196  2 H  s                 23      0.471778  3 H  s          
     7     -0.302571  1 O  px                 3     -0.184089  1 O  px         
    12      0.136183  1 O  py                 1      0.058698  1 O  s          
    10      0.056084  1 O  s                  2     -0.052205  1 O  s          
 
 Vector   10  Occ=0.000000D+00  E= 2.035756D-01
              MO Center= -1.7D-02, -4.8D-02, -1.1D-14, r^2= 3.9D+00
   Bfn.  Coefficient  Atom+Function         Bfn.  Coefficient  Atom+Function  
  ----- ------------  ---------------      ----- ------------  ---------------
    21      1.932382  2 H  s                 23     -1.769015  3 H  s          
    12     -1.541615  1 O  py                 8     -0.516489  1 O  py         
     4     -0.231650  1 O  py                11      0.208793  1 O  px         
    20      0.172239  2 H  s                 22     -0.158610  3 H  s          
    10     -0.130642  1 O  s                  7      0.075659  1 O  px         
 
 Vector   11  Occ=0.000000D+00  E= 2.395482D-01
              MO Center= -7.3D-01, -2.2D-01, -1.0D-13, r^2= 3.7D+00
   Bfn.  Coefficient  Atom+Function         Bfn.  Coefficient  Atom+Function  
  ----- ------------  ---------------      ----- ------------  ---------------
    10      3.306508  1 O  s                 23     -2.489757  3 H  s          
    21     -2.300746  2 H  s                 11     -1.094182  1 O  px         
     6      0.774876  1 O  s                  7     -0.605312  1 O  px         
     3     -0.234426  1 O  px                12     -0.175742  1 O  py         
    22     -0.175587  3 H  s                 20     -0.162737  2 H  s          
 
 Vector   12  Occ=0.000000D+00  E= 9.467240D-01
              MO Center= -5.9D-01, -8.5D-02,  1.4D-17, r^2= 1.9D+00
   Bfn.  Coefficient  Atom+Function         Bfn.  Coefficient  Atom+Function  
  ----- ------------  ---------------      ----- ------------  ---------------
    21      1.878217  2 H  s                 23     -1.664897  3 H  s          
    12     -0.812119  1 O  py                20     -0.788028  2 H  s          
    22      0.721421  3 H  s                  4      0.614033  1 O  py         
     8     -0.474468  1 O  py                15      0.363668  1 O  dxy        
    11      0.121497  1 O  px                 6     -0.097093  1 O  s          
 
 Vector   13  Occ=0.000000D+00  E= 1.032144D+00
              MO Center= -6.8D-01, -2.3D-01, -7.3D-16, r^2= 1.8D+00
   Bfn.  Coefficient  Atom+Function         Bfn.  Coefficient  Atom+Function  
  ----- ------------  ---------------      ----- ------------  ---------------
    23     -2.151103  3 H  s                  6      1.986695  1 O  s          
    21     -1.952745  2 H  s                 10      1.728910  1 O  s          
     7     -0.905096  1 O  px                 2     -0.820580  1 O  s          
     3      0.672625  1 O  px                22      0.658886  3 H  s          
    20      0.577503  2 H  s                 11     -0.553485  1 O  px         
 
 Vector   14  Occ=0.000000D+00  E= 1.111619D+00
              MO Center=  6.0D-02, -8.2D-02,  8.9D-15, r^2= 1.8D+00
   Bfn.  Coefficient  Atom+Function         Bfn.  Coefficient  Atom+Function  
  ----- ------------  ---------------      ----- ------------  ---------------
     8      1.612489  1 O  py                12     -0.806303  1 O  py         
     4     -0.785525  1 O  py                22      0.458747  3 H  s          
    20     -0.407191  2 H  s                 15      0.309869  1 O  dxy        
    23     -0.261416  3 H  s                 21      0.239216  2 H  s          
     7     -0.103191  1 O  px                11      0.053792  1 O  px         
 
 Vector   15  Occ=0.000000D+00  E= 1.113825D+00
              MO Center= -1.4D-01, -1.1D-01, -1.0D-14, r^2= 1.7D+00
   Bfn.  Coefficient  Atom+Function         Bfn.  Coefficient  Atom+Function  
  ----- ------------  ---------------      ----- ------------  ---------------
     9      1.457387  1 O  pz                 5     -0.972666  1 O  pz         
    13     -0.702616  1 O  pz                16     -0.061932  1 O  dxz        
 
 Vector   16  Occ=0.000000D+00  E= 1.143902D+00
              MO Center= -1.0D-01, -1.3D-01, -7.7D-16, r^2= 1.9D+00
   Bfn.  Coefficient  Atom+Function         Bfn.  Coefficient  Atom+Function  
  ----- ------------  ---------------      ----- ------------  ---------------
     7      1.377049  1 O  px                11     -0.898444  1 O  px         
     3     -0.701440  1 O  px                21     -0.699583  2 H  s          
    23     -0.688909  3 H  s                 20      0.581851  2 H  s          
     6      0.564383  1 O  s                 22      0.552278  3 H  s          
    10      0.483895  1 O  s                  2     -0.357476  1 O  s          
 
 Vector   17  Occ=0.000000D+00  E= 1.243631D+00
              MO Center= -1.1D-01, -9.7D-02,  1.7D-15, r^2= 1.9D+00
   Bfn.  Coefficient  Atom+Function         Bfn.  Coefficient  Atom+Function  
  ----- ------------  ---------------      ----- ------------  ---------------
     6      3.539214  1 O  s                  2     -1.525773  1 O  s          
    10     -1.313472  1 O  s                 17     -0.684119  1 O  dyy        
    20     -0.467593  2 H  s                 22     -0.456907  3 H  s          
    14     -0.429222  1 O  dxx               19     -0.246649  1 O  dzz        
    21      0.206868  2 H  s                 23      0.181695  3 H  s          
 
 Vector   18  Occ=0.000000D+00  E= 1.712259D+00
              MO Center= -7.1D-02, -1.0D-01,  7.9D-18, r^2= 6.2D-01
   Bfn.  Coefficient  Atom+Function         Bfn.  Coefficient  Atom+Function  
  ----- ------------  ---------------      ----- ------------  ---------------
    14      0.990580  1 O  dxx               17     -0.540734  1 O  dyy        
    19     -0.391552  1 O  dzz               15      0.334141  1 O  dxy        
     6     -0.190069  1 O  s                  7      0.169340  1 O  px         
    20      0.100991  2 H  s                 22      0.100102  3 H  s          
    10      0.071702  1 O  s                 11     -0.069544  1 O  px         
 
 Vector   19  Occ=0.000000D+00  E= 1.720882D+00
              MO Center= -1.3D-01, -1.1D-01,  1.2D-17, r^2= 6.1D-01
   Bfn.  Coefficient  Atom+Function         Bfn.  Coefficient  Atom+Function  
  ----- ------------  ---------------      ----- ------------  ---------------
    18      1.723927  1 O  dyz               16     -0.167554  1 O  dxz        
 
 Vector   20  Occ=0.000000D+00  E= 1.758260D+00
              MO Center= -9.8D-02, -1.1D-01,  3.8D-17, r^2= 6.1D-01
   Bfn.  Coefficient  Atom+Function         Bfn.  Coefficient  Atom+Function  
  ----- ------------  ---------------      ----- ------------  ---------------
    16      1.721755  1 O  dxz               18      0.167272  1 O  dyz        
     9      0.071246  1 O  pz                13     -0.031277  1 O  pz         
 
 Vector   21  Occ=0.000000D+00  E= 2.270761D+00
              MO Center= -2.6D-01, -1.2D-01,  9.1D-17, r^2= 8.6D-01
   Bfn.  Coefficient  Atom+Function         Bfn.  Coefficient  Atom+Function  
  ----- ------------  ---------------      ----- ------------  ---------------
     6      1.478513  1 O  s                 19     -1.111716  1 O  dzz        
    20     -0.878362  2 H  s                 22     -0.854032  3 H  s          
    17      0.739823  1 O  dyy                7     -0.728528  1 O  px         
     2     -0.493309  1 O  s                 10     -0.311979  1 O  s          
    15     -0.186851  1 O  dxy               11      0.166650  1 O  px         
 
 Vector   22  Occ=0.000000D+00  E= 2.636459D+00
              MO Center= -2.1D-01, -1.2D-01, -1.4D-17, r^2= 9.7D-01
   Bfn.  Coefficient  Atom+Function         Bfn.  Coefficient  Atom+Function  
  ----- ------------  ---------------      ----- ------------  ---------------
    15      2.128142  1 O  dxy               22     -1.075537  3 H  s          
    20      1.028260  2 H  s                  8     -0.983336  1 O  py         
    21     -0.445705  2 H  s                 23      0.445603  3 H  s          
    12      0.420713  1 O  py                17      0.246146  1 O  dyy        
    14     -0.233758  1 O  dxx                7      0.086754  1 O  px         
 
 Vector   23  Occ=0.000000D+00  E= 3.674851D+00
              MO Center= -1.0D-01, -1.1D-01,  2.9D-17, r^2= 1.1D+00
   Bfn.  Coefficient  Atom+Function         Bfn.  Coefficient  Atom+Function  
  ----- ------------  ---------------      ----- ------------  ---------------
     6      4.203779  1 O  s                 19     -1.655692  1 O  dzz        
    14     -1.639957  1 O  dxx               17     -1.631397  1 O  dyy        
    23     -0.602353  3 H  s                 21     -0.583757  2 H  s          
     1     -0.491839  1 O  s                 11     -0.265465  1 O  px         
    10     -0.220232  1 O  s                 22      0.151876  3 H  s          
 

 center of mass
 --------------
 x =  -0.36677265 y =  -0.21896688 z =   0.00000000

 moments of inertia (a.u.)
 ------------------
           4.251101132240           0.246560013733           0.000000000000
           0.246560013733           2.229709189509           0.000000000000
           0.000000000000           0.000000000000           6.480810321748
 
     Multipole analysis of the density
     ---------------------------------
 
     L   x y z        total         alpha         beta         nuclear
     -   - - -        -----         -----         ----         -------
     0   0 0 0     -0.000000     -5.000000     -5.000000     10.000000
 
     1   1 0 0     -0.880236      1.879521      1.879521     -4.639278
     1   0 1 0     -0.092559      1.098172      1.098172     -2.288902
     1   0 0 1     -0.000000     -0.000000     -0.000000      0.000000
 
     2   2 0 0     -4.019840     -4.085104     -4.085104      4.150369
     2   1 1 0      0.064361     -0.365494     -0.365494      0.795349
     2   1 0 1      0.000000      0.000000      0.000000      0.000000
     2   0 2 0     -3.215663     -3.977715     -3.977715      4.739766
     2   0 1 1     -0.000000     -0.000000     -0.000000      0.000000
     2   0 0 2     -5.907070     -2.953535     -2.953535      0.000000
 

 Parallel integral file used       8 records with       0 large values

 *** CALLING NEW AORESP DRIVER FOR CLOSED AND OPEN SHELLS ***
 Entering AOResponse driver routine


--------------------------------------------------------------------------------

          ****************
          *** RESPONSE ***
          ****************

 Response module for NWChem and dynamic CPKS solver
 developed by J. Autschbach and coworkers, SUNY Buffalo
 The methodology used in this program is described in 
 ChemPhysChem 12 (2011), 3224-3235 (main reference)
 J. Chem. Phys. 123 (2005), 114103
 J. Chem. Phys. 122 (2005), 224115
 J. Chem. Phys. 122 (2005), 074105
 Comp. Lett. 3 (2007), 131-150 (contact JA for a copy)
 Please cite this work in publications based on results
 obtained with this code. Thank you!

 For extension of response module to open shell
 calculations please acknowledge:
 F. Aquino, Northwestern University, Schatz Rsrch Group
 The update to the methodology is described in
 J. Phys. Chem. A 118 (2014) 517-525



          -----------------------------------------------
          Solving response equations for perturbing field
          -----------------------------------------------

 number of frequencies:     1
 frequency in a.u.:  0.8855900E-01
 Perturbing field: electric
 Using El. Dipole Length Gauge
 
 Applying DAMPING constant of  0.007000 a.u.
 
 Setting up CPKS
 with frequency omega =      0.08855900 a.u.
 and a damping of            0.00700000 a.u.

 
                            NWChem Dynamic CPHF Module
                            --------------------------
 
 
    scftype = RHF 
    nclosed =    5
      nopen =    0
  variables =      360
  num. vecs =        3
  tolerance =   1.0D-04
  max. iter =   50


 #quartets = 3.081D+03 #integrals = 1.648D+04 #direct =  0.0% #cached =100.0%


 Integral file          = /scratch.global/lever046/nwchem/nwc_h2o_b3lyp_nosmd_ram.aoints.0
 Record size in doubles =    65536    No. of integs per rec  =    43688
 Max. records in memory =        2    Max. records in file   = 53483134
 No. of bits per label  =        8    No. of bits per value  =       64


File balance: exchanges=     0  moved=     0  time=   0.0

 SCF residual:   1.173656247575615E-004


Iterative solution of linear equations
  No. of variables      180
  No. of equations        3
  Maximum subspace       30
       Convergence  1.0D-04
        Start time     67.7


   iter   nsub   residual    time 
   ----  ------  --------  --------- 
 dft_CPHF2_read: failed to open./nwc_h2o_b3lyp_nosmd_ram.aoresp_fiao_f1
     1      3    1.35D+00      67.8
     2      6    1.61D+00      67.9
     3      9    1.35D-01      68.0
     4     12    1.41D-02      68.1
     5     15    5.65D-04      68.2
     6     18    4.35D-05      68.3

 Parallel integral file used       8 records with       0 large values


 Electric Dipole Response Matrix (nonzero elements):

              1        2        3      
    1    6.6894  -0.1847  -0.0000
    2   -0.1847   7.8747  -0.0000
    3   -0.0000   0.0000   6.8596
 
 Imaginary part:

              1        2        3      
    1    0.0347   0.0006   0.0000
    2    0.0006   0.0248  -0.0000
    3    0.0000   0.0000   0.0596

 ------------------------------------------
 average:         7.14126 + I       0.03971


 DFT Linear Response polarizability / au 
 Frequency  =       0.0885590 / au
 Wavelength =     514.4971488 / nm
              X              Y              Z
 -----------------------------------------------
 X       6.6894434     -0.1846862     -0.0000000
 Y      -0.1846862      7.8747094     -0.0000000
 Z      -0.0000000      0.0000000      6.8596163
 -----------------------------------------------
 Eigenvalues =       6.6613325      7.9028202      6.8596163
 Isotropic   =       7.1412563
 Anisotropic =       0.9432006
 -----------------------------------------------
 *************************

 DFT Linear Response IMAG polarizability / au 
 Frequency  =       0.0885590 / au
 Wavelength =     514.4971488 / nm
              X              Y              Z
 -----------------------------------------------
 X       0.0347409      0.0006186      0.0000000
 Y       0.0006185      0.0248025     -0.0000000
 Z       0.0000000      0.0000000      0.0595941
 -----------------------------------------------
 Eigenvalues =       0.0347793      0.0247641      0.0595941
 Isotropic   =       0.0397125
 Anisotropic =       0.0253588
 -----------------------------------------------
 *************************

 Magnetic Dipole Response Matrix (nonzero elements):
 Optical rotation tensor Beta

              1        2        3      
    1   -0.0000  -0.0000   0.6554
    2   -0.0000  -0.0000  -0.8762
    3   -0.7894   1.8061   0.0000
 
 Imaginary part:

              1        2        3      
    1    0.0000   0.0000   0.0550
    2   -0.0000  -0.0000  -0.0710
    3   -0.0712   0.1714   0.0000

 ------------------------------------------
 average:        -0.00000 + I       0.00000

 Exiting AOResponse driver routine
 Stepsize :  1.040586803346980E-002

 3862.14  REAL                      43.867505
 3862.14  IMAGINARY                  0.003131
 3862.14  TOTAL                     43.870637

 Writing mini:
 ./nwc_h2o_b3lyp_nosmd_ram.raman_0007-0009_nblock                               
                                                                                
                                                                                
                   
Writing modecounter=    3
 Showing rminfo:
(start,last,rmmodes,nfreq,plot,width)=(   1,   9,   3,   1,normal          ,    20.00000000)
rminfo(   1)=(  1663.33090640,     3.15618202,     0.00012493,     3.15630695)
rminfo(   2)=(  3736.90207054,    88.42393989,     0.00593497,    88.42987487)
rminfo(   3)=(  3862.14249561,    43.86750544,     0.00313122,    43.87063666)

 Raman scattering data written to ./nwc_h2o_b3lyp_nosmd_ram.normal


 Task  times  cpu:       10.9s     wall:       37.5s
 
 
                                NWChem Input Module
                                -------------------
 
 
 Summary of allocated global arrays
-----------------------------------
  No active global arrays



                         GA Statistics for process    0
                         ------------------------------

       create   destroy   get      put      acc     scatter   gather  read&inc
calls: 1.18e+04 1.18e+04 2.07e+05 1.77e+05 8.45e+04 3762        0     5395     
number of processes/call 1.26e+00 1.11e+00 2.06e+00 0.00e+00 0.00e+00
bytes total:             9.42e+07 1.94e+07 5.88e+07 4.80e+01 0.00e+00 4.32e+04
bytes remote:            2.91e+07 4.03e+06 3.73e+07 0.00e+00 0.00e+00 0.00e+00
Max memory consumed for GA by this process: 151248 bytes
 
MA_summarize_allocated_blocks: starting scan ...
MA_summarize_allocated_blocks: scan completed: 0 heap blocks, 0 stack blocks
MA usage statistics:

	allocation statistics:
					      heap	     stack
					      ----	     -----
	current number of blocks	         0	         0
	maximum number of blocks	        26	        55
	current total bytes		         0	         0
	maximum total bytes		   1455440	  22510840
	maximum total K-bytes		      1456	     22511
	maximum total M-bytes		         2	        23
 
 
                                     CITATION
                                     --------
                Please cite the following reference when publishing
                           results obtained with NWChem:
 
                 M. Valiev, E.J. Bylaska, N. Govind, K. Kowalski,
              T.P. Straatsma, H.J.J. van Dam, D. Wang, J. Nieplocha,
                        E. Apra, T.L. Windus, W.A. de Jong
                 "NWChem: a comprehensive and scalable open-source
                  solution for large scale molecular simulations"
                      Comput. Phys. Commun. 181, 1477 (2010)
                           doi:10.1016/j.cpc.2010.04.018
 
                                      AUTHORS
                                      -------
          E. Apra, E. J. Bylaska, W. A. de Jong, N. Govind, K. Kowalski,
       T. P. Straatsma, M. Valiev, H. J. J. van Dam, D. Wang, T. L. Windus,
        J. Hammond, J. Autschbach, K. Bhaskaran-Nair, J. Brabec, K. Lopata,
    S. A. Fischer, S. Krishnamoorthy, M. Jacquelin, W. Ma, M. Klemm, O. Villa,
      Y. Chen, V. Anisimov, F. Aquino, S. Hirata, M. T. Hackler, V. Konjkov,
            D. Mejia-Rodriguez, T. Risthaus, M. Malagoli, A. Marenich,
   A. Otero-de-la-Roza, J. Mullin, P. Nichols, R. Peverati, J. Pittner, Y. Zhao,
        P.-D. Fan, A. Fonari, M. J. Williamson, R. J. Harrison, J. R. Rehr,
      M. Dupuis, D. Silverstein, D. M. A. Smith, J. Nieplocha, V. Tipparaju,
    M. Krishnan, B. E. Van Kuiken, A. Vazquez-Mayagoitia, L. Jensen, M. Swart,
      Q. Wu, T. Van Voorhis, A. A. Auer, M. Nooijen, L. D. Crosby, E. Brown,
      G. Cisneros, G. I. Fann, H. Fruchtl, J. Garza, K. Hirao, R. A. Kendall,
      J. A. Nichols, K. Tsemekhman, K. Wolinski, J. Anchell, D. E. Bernholdt,
      P. Borowski, T. Clark, D. Clerc, H. Dachsel, M. J. O. Deegan, K. Dyall,
    D. Elwood, E. Glendening, M. Gutowski, A. C. Hess, J. Jaffe, B. G. Johnson,
     J. Ju, R. Kobayashi, R. Kutteh, Z. Lin, R. Littlefield, X. Long, B. Meng,
      T. Nakajima, S. Niu, L. Pollack, M. Rosing, K. Glaesemann, G. Sandrone,
      M. Stave, H. Taylor, G. Thomas, J. H. van Lenthe, A. T. Wong, Z. Zhang.

 Total times  cpu:       18.2s     wall:       68.6s
