 argument  1 = nwc_h2o_b3lyp_nosmd_uvv.inp
                                         
                                         
 
 
              Northwest Computational Chemistry Package (NWChem) 6.8
              ------------------------------------------------------
 
 
                    Environmental Molecular Sciences Laboratory
                       Pacific Northwest National Laboratory
                                Richland, WA 99352
 
                              Copyright (c) 1994-2017
                       Pacific Northwest National Laboratory
                            Battelle Memorial Institute
 
             NWChem is an open-source computational chemistry package
                        distributed under the terms of the
                      Educational Community License (ECL) 2.0
             A copy of the license is included with this distribution
                              in the LICENSE.TXT file
 
                                  ACKNOWLEDGMENT
                                  --------------

            This software and its documentation were developed at the
            EMSL at Pacific Northwest National Laboratory, a multiprogram
            national laboratory, operated for the U.S. Department of Energy
            by Battelle under Contract Number DE-AC05-76RL01830. Support
            for this work was provided by the Department of Energy Office
            of Biological and Environmental Research, Office of Basic
            Energy Sciences, and the Office of Advanced Scientific Computing.


           Job information
           ---------------

    hostname        = acn106
    program         = nwchem
    date            = Wed Apr 24 16:54:35 2024

    compiled        = Tue_Aug_14_10:52:15_2018
    source          = /panfs/roc/msisoft/nwchem/6.8_impi_2018
    nwchem branch   = 6.8
    nwchem revision = v6.8-47-gdf6c956
    ga revision     = ga-5.6.3
    use scalapack   = T
    input           = nwc_h2o_b3lyp_nosmd_uvv.inp
    prefix          = nwc_h2o_b3lyp_nosmd_uvv.
    data base       = ./nwc_h2o_b3lyp_nosmd_uvv.db
    status          = startup
    nproc           =        8
    time left       =     -1s



           Memory information
           ------------------

    heap     =   13107200 doubles =    100.0 Mbytes
    stack    =   13107197 doubles =    100.0 Mbytes
    global   =   26214400 doubles =    200.0 Mbytes (distinct from heap & stack)
    total    =   52428797 doubles =    400.0 Mbytes
    verify   = yes
    hardfail = no 


           Directory information
           ---------------------
 
  0 permanent = .
  0 scratch   = /scratch.global/lever046/nwchem
 
 
 
 
                                NWChem Input Module
                                -------------------
 
 
                               water molecule UV/Vis
                               ---------------------

 Scaling coordinates for geometry "geometry" by  1.889725989
 (inverse scale =  0.529177249)

 C2V symmetry detected

          ------
          auto-z
          ------
     1 autoz failed with cvr_scaling = 1.2 changing to 1.3
     2 autoz failed with cvr_scaling = 1.3 changing to 1.4
     3 autoz failed with cvr_scaling = 1.4 changing to 1.5
     4 autoz failed with cvr_scaling = 1.5 changing to 1.6
     5 autoz failed with cvr_scaling = 1.6 changing to 1.7

 AUTOZ failed to generate good internal coordinates.
 Cartesian coordinates will be used in optimizations.

 
 
                             Geometry "geometry" -> ""
                             -------------------------
 
 Output coordinates in angstroms (scale by  1.889725989 to convert to a.u.)
 
  No.       Tag          Charge          X              Y              Z
 ---- ---------------- ---------- -------------- -------------- --------------
    1 O                    8.0000     0.00000000     0.00000000     0.22173985
    2 H                    1.0000     1.45725868     0.00000000    -0.88695940
    3 H                    1.0000    -1.45725868     0.00000000    -0.88695940
 
      Atomic Mass 
      ----------- 
 
      O                 15.994910
      H                  1.007825
 

 Effective nuclear repulsion energy (a.u.)       4.8055490068

            Nuclear Dipole moment (a.u.) 
            ----------------------------
        X                 Y               Z
 ---------------- ---------------- ----------------
     0.0000000000     0.0000000000     0.0000000000
 
      Symmetry information
      --------------------
 
 Group name             C2v       
 Group number             16
 Group order               4
 No. of unique centers     2
 
      Symmetry unique atoms
 
     1    2
 
 
            XYZ format geometry
            -------------------
     3
 geometry
 O                     0.00000000     0.00000000     0.22173985
 H                     1.45725868     0.00000000    -0.88695940
 H                    -1.45725868     0.00000000    -0.88695940
 
  library name resolved from: environment
  library file name is: <
 /common/software/install/migrated/nwchem/6.5_ompi_1.7.2/src/basis/libraries/>
  


 Summary of "ao basis" -> "" (cartesian)
 ------------------------------------------------------------------------------
       Tag                 Description            Shells   Functions and Types
 ---------------- ------------------------------  ------  ---------------------
 *                          6-31+G*                   on all atoms 


 
                                 NWChem DFT Module
                                 -----------------
 
 
                               water molecule UV/Vis
 
 
                      Basis "ao basis" -> "ao basis" (cartesian)
                      -----
  O (Oxygen)
  ----------
            Exponent  Coefficients 
       -------------- ---------------------------------------------------------
  1 S  5.48467170E+03  0.001831
  1 S  8.25234950E+02  0.013950
  1 S  1.88046960E+02  0.068445
  1 S  5.29645000E+01  0.232714
  1 S  1.68975700E+01  0.470193
  1 S  5.79963530E+00  0.358521
 
  2 S  1.55396160E+01 -0.110778
  2 S  3.59993360E+00 -0.148026
  2 S  1.01376180E+00  1.130767
 
  3 P  1.55396160E+01  0.070874
  3 P  3.59993360E+00  0.339753
  3 P  1.01376180E+00  0.727159
 
  4 S  2.70005800E-01  1.000000
 
  5 P  2.70005800E-01  1.000000
 
  6 S  8.45000000E-02  1.000000
 
  7 P  8.45000000E-02  1.000000
 
  8 D  8.00000000E-01  1.000000
 
  H (Hydrogen)
  ------------
            Exponent  Coefficients 
       -------------- ---------------------------------------------------------
  1 S  1.87311370E+01  0.033495
  1 S  2.82539370E+00  0.234727
  1 S  6.40121700E-01  0.813757
 
  2 S  1.61277800E-01  1.000000
 


 Summary of "ao basis" -> "ao basis" (cartesian)
 ------------------------------------------------------------------------------
       Tag                 Description            Shells   Functions and Types
 ---------------- ------------------------------  ------  ---------------------
 O                          6-31+G*                  8       19   4s3p1d
 H                          6-31+G*                  2        2   2s




 Summary of "ao basis" -> "ao basis" (cartesian)
 ------------------------------------------------------------------------------
       Tag                 Description            Shells   Functions and Types
 ---------------- ------------------------------  ------  ---------------------
 O                          6-31+G*                  8       19   4s3p1d
 H                          6-31+G*                  2        2   2s


      Symmetry analysis of basis
      --------------------------
 
        a1         12
        a2          1
        b1          6
        b2          4
 
  Caching 1-el integrals 
 
            General Information
            -------------------
          SCF calculation type: DFT
          Wavefunction type:  closed shell.
          No. of atoms     :     3
          No. of electrons :    10
           Alpha electrons :     5
            Beta electrons :     5
          Charge           :     0
          Spin multiplicity:     1
          Use of symmetry is: off; symmetry adaption is: on 
          Maximum number of iterations:  30
          AO basis - number of functions:    23
                     number of shells:    12
          Convergence on energy requested:  1.00D-06
          Convergence on density requested:  1.00D-05
          Convergence on gradient requested:  5.00D-04
 
              XC Information
              --------------
                         B3LYP Method XC Potential
                     Hartree-Fock (Exact) Exchange  0.200          
                        Slater Exchange Functional  0.800 local    
                    Becke 1988 Exchange Functional  0.720 non-local
              Lee-Yang-Parr Correlation Functional  0.810          
                  VWN I RPA Correlation Functional  0.190 local    
 
             Grid Information
             ----------------
          Grid used for XC integration:  medium    
          Radial quadrature: Mura-Knowles        
          Angular quadrature: Lebedev. 
          Tag              B.-S. Rad. Rad. Pts. Rad. Cut. Ang. Pts.
          ---              ---------- --------- --------- ---------
          O                   0.60       49           7.0       434
          H                   0.35       45           8.0       434
          Grid pruning is: on 
          Number of quadrature shells:   139
          Spatial weights used:  Erf1
 
          Convergence Information
          -----------------------
          Convergence aids based upon iterative change in 
          total energy or number of iterations. 
          Levelshifting, if invoked, occurs when the 
          HOMO/LUMO gap drops below (HL_TOL):  1.00D-02
          DIIS, if invoked, will attempt to extrapolate 
          using up to (NFOCK): 10 stored Fock matrices.

                    Damping( 0%)  Levelshifting(0.5)       DIIS
                  --------------- ------------------- ---------------
          dE  on:    start            ASAP                start   
          dE off:    2 iters         30 iters            30 iters 

 
      Screening Tolerance Information
      -------------------------------
          Density screening/tol_rho:  1.00D-10
          AO Gaussian exp screening on grid/accAOfunc:  14
          CD Gaussian exp screening on grid/accCDfunc:  20
          XC Gaussian exp screening on grid/accXCfunc:  20
          Schwarz screening/accCoul:  1.00D-08

 
      Superposition of Atomic Density Guess
      -------------------------------------
 
 Sum of atomic energies:         -75.75320674
 
      Non-variational initial energy
      ------------------------------

 Total energy =     -75.037670
 1-e energy   =    -113.721865
 2-e energy   =      33.878646
 HOMO         =      -0.383812
 LUMO         =      -0.137221
 
 
      Symmetry analysis of molecular orbitals - initial
      -------------------------------------------------
 
  Numbering of irreducible representations: 
 
     1 a1          2 a2          3 b1          4 b2      
 
  Orbital symmetries:
 
     1 a1          2 a1          3 b1          4 a1          5 b2      
     6 a1          7 b1          8 a1          9 b2         10 b1      
    11 a1         12 a1         13 b1         14 b2         15 a1      
 
   Time after variat. SCF:      0.4
   Time prior to 1st pass:      0.4

 #quartets = 3.081D+03 #integrals = 1.637D+04 #direct =  0.0% #cached =100.0%


 Integral file          = /scratch.global/lever046/nwchem/nwc_h2o_b3lyp_nosmd_uvv.aoints.0
 Record size in doubles =    65536    No. of integs per rec  =    43688
 Max. records in memory =        2    Max. records in file   = 53294483
 No. of bits per label  =        8    No. of bits per value  =       64


File balance: exchanges=     0  moved=     0  time=   0.0


 Grid_pts file          = /scratch.global/lever046/nwchem/nwc_h2o_b3lyp_nosmd_uvv.gridpts.0
 Record size in doubles =  12289        No. of grid_pts per rec  =   3070
 Max. records in memory =      4        Max. recs in file   = 284214121


           Memory utilization after 1st SCF pass: 
           Heap Space remaining (MW):       12.93            12925256
          Stack Space remaining (MW):       13.11            13106924

   convergence    iter        energy       DeltaE   RMS-Dens  Diis-err    time
 ---------------- ----- ----------------- --------- --------- ---------  ------
 d= 0,ls=0.0,diis     1    -75.8867360644 -8.07D+01  1.08D-01  1.18D+00     1.6

 !! scf_movecs_sym_adapt:    2 vectors were symmetry contaminated

  Symmetry fudging
 d= 0,ls=0.0,diis     2    -73.8479020639  2.04D+00  8.57D-02  1.10D+01     1.6
 d= 0,ls=0.0,diis     3    -76.1177670812 -2.27D+00  1.69D-03  1.96D-02     1.7
 d= 0,ls=0.0,diis     4    -76.1182997590 -5.33D-04  4.33D-04  1.63D-02     1.7
 d= 0,ls=0.0,diis     5    -76.1189410086 -6.41D-04  1.28D-03  1.11D-02     1.7
  Resetting Diis
 d= 0,ls=0.0,diis     6    -76.1201577042 -1.22D-03  8.92D-04  1.61D-03     1.8
 d= 0,ls=0.0,diis     7    -76.1203523092 -1.95D-04  8.59D-04  6.37D-05     1.8
 d= 0,ls=0.0,diis     8    -76.1201638461  1.88D-04  7.26D-04  1.63D-03     1.8
 d= 0,ls=0.0,diis     9    -76.1203598597 -1.96D-04  8.89D-06  1.04D-07     1.8
 d= 0,ls=0.0,diis    10    -76.1203598731 -1.34D-08  2.15D-06  9.06D-09     1.9


         Total DFT energy =      -76.120359873099
      One electron energy =     -114.384126890635
           Coulomb energy =       42.346480446643
    Exchange-Corr. energy =       -8.888262435940
 Nuclear repulsion energy =        4.805549006833

 Numeric. integr. density =       10.000000806864

     Total iterative time =      1.5s


 
                  Occupations of the irreducible representations
                  ----------------------------------------------
 
                     irrep           alpha         beta
                     --------     --------     --------
                     a1                3.0          3.0
                     a2                0.0          0.0
                     b1                1.0          1.0
                     b2                1.0          1.0
 
 
                       DFT Final Molecular Orbital Analysis
                       ------------------------------------
 
 Vector    1  Occ=2.000000D+00  E=-1.924007D+01  Symmetry=a1
              MO Center= -9.5D-17, -7.4D-18,  2.2D-01, r^2= 1.5D-02
   Bfn.  Coefficient  Atom+Function         Bfn.  Coefficient  Atom+Function  
  ----- ------------  ---------------      ----- ------------  ---------------
     1      0.992924  1 O  s                  2      0.025332  1 O  s          
 
 Vector    2  Occ=2.000000D+00  E=-8.927462D-01  Symmetry=a1
              MO Center= -1.1D-14, -1.5D-15,  1.8D-01, r^2= 4.9D-01
   Bfn.  Coefficient  Atom+Function         Bfn.  Coefficient  Atom+Function  
  ----- ------------  ---------------      ----- ------------  ---------------
     6      0.552759  1 O  s                  2      0.535888  1 O  s          
     1     -0.233835  1 O  s          
 
 Vector    3  Occ=2.000000D+00  E=-3.616314D-01  Symmetry=b1
              MO Center=  6.6D-12, -2.6D-16, -2.1D-01, r^2= 1.8D+00
   Bfn.  Coefficient  Atom+Function         Bfn.  Coefficient  Atom+Function  
  ----- ------------  ---------------      ----- ------------  ---------------
     3      0.484560  1 O  px                 7      0.300363  1 O  px         
    21      0.239286  2 H  s                 23     -0.239286  3 H  s          
    20      0.184635  2 H  s                 22     -0.184635  3 H  s          
    11      0.063025  1 O  px                16     -0.026254  1 O  dxz        
 
 Vector    4  Occ=2.000000D+00  E=-3.410772D-01  Symmetry=a1
              MO Center= -8.0D-12, -1.8D-16, -1.9D-01, r^2= 1.8D+00
   Bfn.  Coefficient  Atom+Function         Bfn.  Coefficient  Atom+Function  
  ----- ------------  ---------------      ----- ------------  ---------------
     5      0.499563  1 O  pz                 9      0.303822  1 O  pz         
    21     -0.233879  2 H  s                 23     -0.233879  3 H  s          
    20     -0.176081  2 H  s                 22     -0.176081  3 H  s          
     6      0.131155  1 O  s                  2      0.086804  1 O  s          
    13      0.086321  1 O  pz                 1     -0.034168  1 O  s          
 
 Vector    5  Occ=2.000000D+00  E=-3.029342D-01  Symmetry=b2
              MO Center=  2.0D-14, -8.5D-16,  2.2D-01, r^2= 6.7D-01
   Bfn.  Coefficient  Atom+Function         Bfn.  Coefficient  Atom+Function  
  ----- ------------  ---------------      ----- ------------  ---------------
     4      0.672605  1 O  py                 8      0.402882  1 O  py         
    12      0.126993  1 O  py         
 
 Vector    6  Occ=0.000000D+00  E=-1.682871D-01  Symmetry=a1
              MO Center= -1.4D-11,  3.2D-15, -4.3D-01, r^2= 2.6D+00
   Bfn.  Coefficient  Atom+Function         Bfn.  Coefficient  Atom+Function  
  ----- ------------  ---------------      ----- ------------  ---------------
    21      0.451752  2 H  s                 23      0.451752  3 H  s          
     5      0.447035  1 O  pz                 9      0.320122  1 O  pz         
     6     -0.265831  1 O  s                 20      0.222044  2 H  s          
    22      0.222044  3 H  s                 13      0.093367  1 O  pz         
     2     -0.074554  1 O  s                 10      0.069681  1 O  s          
 
 Vector    7  Occ=0.000000D+00  E=-1.390347D-01  Symmetry=b1
              MO Center=  2.0D-11, -6.6D-27, -4.8D-01, r^2= 2.5D+00
   Bfn.  Coefficient  Atom+Function         Bfn.  Coefficient  Atom+Function  
  ----- ------------  ---------------      ----- ------------  ---------------
    21     -0.491681  2 H  s                 23      0.491681  3 H  s          
     3      0.478562  1 O  px                 7      0.366288  1 O  px         
    20     -0.233070  2 H  s                 22      0.233070  3 H  s          
    11      0.089667  1 O  px         
 
 Vector    8  Occ=0.000000D+00  E= 1.463002D-01  Symmetry=a1
              MO Center=  3.3D-12,  4.3D-14,  1.2D+00, r^2= 3.3D+00
   Bfn.  Coefficient  Atom+Function         Bfn.  Coefficient  Atom+Function  
  ----- ------------  ---------------      ----- ------------  ---------------
    10      1.349385  1 O  s                  6     -0.928349  1 O  s          
    13      0.698275  1 O  pz                 9     -0.313713  1 O  pz         
     5     -0.189953  1 O  pz                21     -0.152062  2 H  s          
    23     -0.152062  3 H  s                  1      0.072374  1 O  s          
    17      0.059125  1 O  dyy               19      0.057415  1 O  dzz        
 
 Vector    9  Occ=0.000000D+00  E= 1.603192D-01  Symmetry=b2
              MO Center=  2.9D-16, -2.9D-14,  2.2D-01, r^2= 4.8D+00
   Bfn.  Coefficient  Atom+Function         Bfn.  Coefficient  Atom+Function  
  ----- ------------  ---------------      ----- ------------  ---------------
    12      1.200815  1 O  py                 8     -0.455395  1 O  py         
     4     -0.264145  1 O  py         
 
 Vector   10  Occ=0.000000D+00  E= 1.961284D-01  Symmetry=b1
              MO Center= -5.3D-12, -2.2D-18,  7.7D-01, r^2= 4.7D+00
   Bfn.  Coefficient  Atom+Function         Bfn.  Coefficient  Atom+Function  
  ----- ------------  ---------------      ----- ------------  ---------------
    11      1.656749  1 O  px                21     -0.619846  2 H  s          
    23      0.619846  3 H  s                  7     -0.435506  1 O  px         
     3     -0.181200  1 O  px                20     -0.065476  2 H  s          
    22      0.065476  3 H  s                 16      0.031817  1 O  dxz        
 
 Vector   11  Occ=0.000000D+00  E= 2.081605D-01  Symmetry=a1
              MO Center=  2.0D-12, -1.5D-14, -7.2D-01, r^2= 4.0D+00
   Bfn.  Coefficient  Atom+Function         Bfn.  Coefficient  Atom+Function  
  ----- ------------  ---------------      ----- ------------  ---------------
    10      1.856574  1 O  s                 13     -1.405078  1 O  pz         
     6     -1.024060  1 O  s                 21     -0.843141  2 H  s          
    23     -0.843141  3 H  s                  9      0.326431  1 O  pz         
     5      0.133922  1 O  pz                20     -0.102872  2 H  s          
    22     -0.102872  3 H  s                 17      0.075510  1 O  dyy        
 
 Vector   12  Occ=0.000000D+00  E= 7.622799D-01  Symmetry=a1
              MO Center=  7.8D-11,  2.7D-17, -9.4D-01, r^2= 3.9D+00
   Bfn.  Coefficient  Atom+Function         Bfn.  Coefficient  Atom+Function  
  ----- ------------  ---------------      ----- ------------  ---------------
    21      1.154341  2 H  s                 23      1.154341  3 H  s          
    20     -0.840826  2 H  s                 22     -0.840826  3 H  s          
     6     -0.765957  1 O  s                 10     -0.509842  1 O  s          
     9      0.406875  1 O  pz                 2      0.382044  1 O  s          
     5     -0.257171  1 O  pz                13      0.238117  1 O  pz         
 
 Vector   13  Occ=0.000000D+00  E= 7.906646D-01  Symmetry=b1
              MO Center= -8.7D-11,  1.1D-17, -9.0D-01, r^2= 3.8D+00
   Bfn.  Coefficient  Atom+Function         Bfn.  Coefficient  Atom+Function  
  ----- ------------  ---------------      ----- ------------  ---------------
    21      1.064260  2 H  s                 23     -1.064260  3 H  s          
    20     -0.848086  2 H  s                 22      0.848086  3 H  s          
     7     -0.562936  1 O  px                 3      0.349458  1 O  px         
    11     -0.212178  1 O  px                16      0.050390  1 O  dxz        
 
 Vector   14  Occ=0.000000D+00  E= 1.129127D+00  Symmetry=b2
              MO Center=  2.0D-14,  7.2D-15,  2.2D-01, r^2= 1.8D+00
   Bfn.  Coefficient  Atom+Function         Bfn.  Coefficient  Atom+Function  
  ----- ------------  ---------------      ----- ------------  ---------------
     8      1.470269  1 O  py                 4     -0.955130  1 O  py         
    12     -0.701258  1 O  py         
 
 Vector   15  Occ=0.000000D+00  E= 1.140671D+00  Symmetry=a1
              MO Center=  3.1D-12, -9.8D-15,  3.6D-01, r^2= 1.8D+00
   Bfn.  Coefficient  Atom+Function         Bfn.  Coefficient  Atom+Function  
  ----- ------------  ---------------      ----- ------------  ---------------
     9      1.405942  1 O  pz                 5     -0.928951  1 O  pz         
    13     -0.806008  1 O  pz                 6      0.416515  1 O  s          
    21     -0.353292  2 H  s                 23     -0.353292  3 H  s          
    20      0.273512  2 H  s                 22      0.273512  3 H  s          
     2     -0.200472  1 O  s                 10      0.097491  1 O  s          
 
 Vector   16  Occ=0.000000D+00  E= 1.156023D+00  Symmetry=b1
              MO Center=  1.1D-12,  2.1D-26,  1.3D-01, r^2= 1.9D+00
   Bfn.  Coefficient  Atom+Function         Bfn.  Coefficient  Atom+Function  
  ----- ------------  ---------------      ----- ------------  ---------------
     7      1.349632  1 O  px                 3     -0.905598  1 O  px         
    11     -0.861262  1 O  px                21      0.484264  2 H  s          
    23     -0.484264  3 H  s                 20     -0.412461  2 H  s          
    22      0.412461  3 H  s          
 
 Vector   17  Occ=0.000000D+00  E= 1.226048D+00  Symmetry=a1
              MO Center=  1.2D-12,  2.7D-15,  7.4D-02, r^2= 2.2D+00
   Bfn.  Coefficient  Atom+Function         Bfn.  Coefficient  Atom+Function  
  ----- ------------  ---------------      ----- ------------  ---------------
     6      3.607647  1 O  s                 10     -1.719225  1 O  s          
     2     -1.673837  1 O  s                 21      0.530057  2 H  s          
    23      0.530057  3 H  s                 17     -0.495668  1 O  dyy        
    19     -0.450600  1 O  dzz               14     -0.417123  1 O  dxx        
    20     -0.312537  2 H  s                 22     -0.312537  3 H  s          
 
 Vector   18  Occ=0.000000D+00  E= 1.787135D+00  Symmetry=a1
              MO Center= -8.5D-14,  3.2D-16,  2.3D-01, r^2= 6.2D-01
   Bfn.  Coefficient  Atom+Function         Bfn.  Coefficient  Atom+Function  
  ----- ------------  ---------------      ----- ------------  ---------------
    19      0.929561  1 O  dzz               14     -0.780577  1 O  dxx        
    17     -0.167042  1 O  dyy               10     -0.095202  1 O  s          
     6      0.083804  1 O  s                 21      0.057866  2 H  s          
    23      0.057866  3 H  s                 13      0.042777  1 O  pz         
     2     -0.031547  1 O  s          
 
 Vector   19  Occ=0.000000D+00  E= 1.803641D+00  Symmetry=a2
              MO Center=  2.2D-14,  1.3D-15,  2.2D-01, r^2= 6.1D-01
   Bfn.  Coefficient  Atom+Function         Bfn.  Coefficient  Atom+Function  
  ----- ------------  ---------------      ----- ------------  ---------------
    15      1.732051  1 O  dxy        
 
 Vector   20  Occ=0.000000D+00  E= 1.807695D+00  Symmetry=b2
              MO Center= -6.3D-14, -6.9D-17,  2.3D-01, r^2= 6.1D-01
   Bfn.  Coefficient  Atom+Function         Bfn.  Coefficient  Atom+Function  
  ----- ------------  ---------------      ----- ------------  ---------------
    18      1.731974  1 O  dyz        
 
 Vector   21  Occ=0.000000D+00  E= 1.821777D+00  Symmetry=b1
              MO Center= -1.7D-13, -1.0D-15,  2.3D-01, r^2= 7.2D-01
   Bfn.  Coefficient  Atom+Function         Bfn.  Coefficient  Atom+Function  
  ----- ------------  ---------------      ----- ------------  ---------------
    16      1.751458  1 O  dxz               11     -0.232207  1 O  px         
    21      0.194205  2 H  s                 23     -0.194205  3 H  s          
     7      0.070247  1 O  px         
 
 Vector   22  Occ=0.000000D+00  E= 1.837977D+00  Symmetry=a1
              MO Center= -3.5D-13,  7.1D-17,  2.1D-01, r^2= 7.0D-01
   Bfn.  Coefficient  Atom+Function         Bfn.  Coefficient  Atom+Function  
  ----- ------------  ---------------      ----- ------------  ---------------
    17      0.960684  1 O  dyy               14     -0.670289  1 O  dxx        
    19     -0.384409  1 O  dzz               10     -0.342135  1 O  s          
     6      0.322295  1 O  s                 21      0.206997  2 H  s          
    23      0.206997  3 H  s                 13      0.170361  1 O  pz         
     2     -0.104552  1 O  s                  9     -0.043721  1 O  pz         
 
 Vector   23  Occ=0.000000D+00  E= 3.664569D+00  Symmetry=a1
              MO Center= -3.4D-15, -2.1D-16,  2.2D-01, r^2= 1.1D+00
   Bfn.  Coefficient  Atom+Function         Bfn.  Coefficient  Atom+Function  
  ----- ------------  ---------------      ----- ------------  ---------------
     6      4.000886  1 O  s                 14     -1.623936  1 O  dxx        
    19     -1.613357  1 O  dzz               17     -1.605297  1 O  dyy        
    10     -1.045127  1 O  s                  1     -0.483261  1 O  s          
    21      0.177591  2 H  s                 23      0.177591  3 H  s          
     2      0.165281  1 O  s                 20     -0.106305  2 H  s          
 

 center of mass
 --------------
 x =   0.00000000 y =   0.00000000 z =   0.18455042

 moments of inertia (a.u.)
 ------------------
           7.857689903346           0.000000000000           0.000000000000
           0.000000000000          23.143416763471           0.000000000000
           0.000000000000           0.000000000000          15.285726860125
 
     Multipole analysis of the density
     ---------------------------------
 
     L   x y z        total         alpha         beta         nuclear
     -   - - -        -----         -----         ----         -------
     0   0 0 0     -0.000000     -5.000000     -5.000000     10.000000
 
     1   1 0 0      0.000000      0.000000      0.000000      0.000000
     1   0 1 0      0.000000      0.000000      0.000000      0.000000
     1   0 0 1     -0.860528     -0.430264     -0.430264      0.000000
 
     2   2 0 0     -1.804236     -8.485641     -8.485641     15.167045
     2   1 1 0      0.000000      0.000000      0.000000      0.000000
     2   1 0 1      0.000000      0.000000      0.000000      0.000000
     2   0 2 0     -6.748297     -3.374149     -3.374149      0.000000
     2   0 1 1      0.000000      0.000000      0.000000      0.000000
     2   0 0 2     -4.530071     -5.776717     -5.776717      7.023364
 

 Parallel integral file used       8 records with       0 large values

                                NWChem TDDFT Module
                                -------------------
 
 
                               water molecule UV/Vis
 
 
            General Information
            -------------------
           No. of orbitals :      46
            Alpha orbitals :      23
             Beta orbitals :      23
        Alpha frozen cores :       0
         Beta frozen cores :       0
     Alpha frozen virtuals :       0
      Beta frozen virtuals :       0
         Spin multiplicity :       1
    Number of AO functions :      23
        Use of symmetry is : off
      Symmetry adaption is : on 
         Schwarz screening :  0.10D-07
 
              XC Information
              --------------
                  B3LYP Method XC Potential
              Hartree-Fock (Exact) Exchange   0.20          
                 Slater Exchange Functional   0.80 local    
             Becke 1988 Exchange Functional   0.72 non-local
       Lee-Yang-Parr Correlation Functional   0.81          
           VWN I RPA Correlation Functional   0.19 local    
 
             TDDFT Information
             -----------------
          Calculation type : TDDFT             
         Wavefunction type : Restricted singlets
          No. of electrons :      10
           Alpha electrons :       5
            Beta electrons :       5
              No. of roots :      10
          Max subspacesize :    6000
            Max iterations :     100
               Target root :       1
           Target symmetry : none
      Symmetry restriction : off
                 Algorithm : Optimal
        Davidson threshold :  0.10D-03
 
            Memory Information
            ------------------
          Available GA space size is         209714671 doubles
          Available MA space size is          26212684 doubles
          Length of a trial vector is           90
          Algorithm : Incore multiple tensor contraction
          Estimated peak GA usage is           2206236 doubles
          Estimated peak MA usage is             71000 doubles
 
   10 smallest eigenvalue differences (eV) 
--------------------------------------------------------
  No. Spin  Occ  Vir  Irrep   E(Occ)    E(Vir)   E(Diff)
--------------------------------------------------------
    1    1    5    6 b2       -0.303    -0.168     3.664
    2    1    5    7 a2       -0.303    -0.139     4.460
    3    1    4    6 a1       -0.341    -0.168     4.702
    4    1    3    6 b1       -0.362    -0.168     5.261
    5    1    4    7 b1       -0.341    -0.139     5.498
    6    1    3    7 a1       -0.362    -0.139     6.057
    7    1    5    8 b2       -0.303     0.146    12.224
    8    1    5    9 a1       -0.303     0.160    12.606
    9    1    4    8 a1       -0.341     0.146    13.262
   10    1    5   10 a2       -0.303     0.196    13.580
--------------------------------------------------------

  Entering Davidson iterations
  Restricted singlet excited states

  Iter   NTrls   NConv    DeltaV     DeltaE      Time   
  ----  ------  ------  ---------  ---------  --------- 
    1     10       0     0.50E+00   0.10+100        0.5
    2     30       0     0.61E-01   0.85E-01        0.4
    3     49       3     0.65E-01   0.20E-01        0.4
    4     62       6     0.12E-02   0.27E-02        0.3
    5     70      10     0.53E-04   0.88E-07        0.2
  ----  ------  ------  ---------  ---------  --------- 
  Convergence criterion met
 
  Ground state a1        -76.120359873099 a.u.
 
  ----------------------------------------------------------------------------
  Root   1 singlet b2             0.061765729 a.u.                1.6807 eV 
  ----------------------------------------------------------------------------
     Transition Moments    X  0.00000   Y  0.12271   Z -0.00000
     Transition Moments   XX  0.00000  XY  0.00000  XZ -0.00000
     Transition Moments   YY -0.00000  YZ  0.19080  ZZ -0.00000
     Dipole Oscillator Strength                    0.0006200330
     Electric Quadrupole                           0.0000000000
     Magnetic Dipole                               0.0000003576
     Total Oscillator Strength                     0.0006203906
 
     Occ.    5  b2  ---  Virt.    6  a1  -1.00665 X
     Occ.    5  b2  ---  Virt.    6  a1   0.11946 Y
  ----------------------------------------------------------------------------
  Root   2 singlet a2             0.088411408 a.u.                2.4058 eV 
  ----------------------------------------------------------------------------
     Transition Moments    X -0.00000   Y  0.00000   Z  0.00000
     Transition Moments   XX -0.00000  XY -0.06936  XZ  0.00000
     Transition Moments   YY  0.00000  YZ  0.00000  ZZ  0.00000
     Dipole Oscillator Strength                    0.0000000000
     Electric Quadrupole                           0.0000000000
     Magnetic Dipole                               0.0000004444
     Total Oscillator Strength                     0.0000004444
 
     Occ.    5  b2  ---  Virt.    7  b1   1.00257 X
     Occ.    5  b2  ---  Virt.    7  b1  -0.07715 Y
  ----------------------------------------------------------------------------
  Root   3 singlet b1             0.129164032 a.u.                3.5147 eV 
  ----------------------------------------------------------------------------
     Transition Moments    X -0.12521   Y  0.00000   Z -0.00000
     Transition Moments   XX  0.00000  XY -0.00000  XZ -0.08188
     Transition Moments   YY  0.00000  YZ -0.00000  ZZ -0.00000
     Dipole Oscillator Strength                    0.0013500558
     Electric Quadrupole                           0.0000000001
     Magnetic Dipole                               0.0000009184
     Total Oscillator Strength                     0.0013509742
 
     Occ.    3  b1  ---  Virt.    6  a1   0.72530 X
     Occ.    3  b1  ---  Virt.    6  a1  -0.05504 Y
     Occ.    4  a1  ---  Virt.    7  b1  -0.69114 X
  ----------------------------------------------------------------------------
  Root   4 singlet a1             0.136947038 a.u.                3.7265 eV 
  ----------------------------------------------------------------------------
     Transition Moments    X -0.00000   Y -0.00000   Z  0.26370
     Transition Moments   XX -0.80001  XY -0.00000  XZ  0.00000
     Transition Moments   YY  0.02848  YZ  0.00000  ZZ  0.12887
     Dipole Oscillator Strength                    0.0063485137
     Electric Quadrupole                           0.0000000036
     Magnetic Dipole                               0.0000000000
     Total Oscillator Strength                     0.0063485173
 
     Occ.    3  b1  ---  Virt.    7  b1   0.55745 X
     Occ.    3  b1  ---  Virt.    7  b1   0.05871 Y
     Occ.    4  a1  ---  Virt.    6  a1  -0.83419 X
     Occ.    4  a1  ---  Virt.    6  a1   0.06380 Y
  ----------------------------------------------------------------------------
  Root   5 singlet b1             0.233720560 a.u.                6.3599 eV 
  ----------------------------------------------------------------------------
     Transition Moments    X  2.08533   Y  0.00000   Z  0.00000
     Transition Moments   XX -0.00000  XY -0.00000  XZ -3.22607
     Transition Moments   YY  0.00000  YZ -0.00000  ZZ  0.00000
     Dipole Oscillator Strength                    0.6775738200
     Electric Quadrupole                           0.0000007076
     Magnetic Dipole                               0.0000000597
     Total Oscillator Strength                     0.6775745873
 
     Occ.    3  b1  ---  Virt.    6  a1  -0.71115 X
     Occ.    3  b1  ---  Virt.    6  a1   0.18348 Y
     Occ.    3  b1  ---  Virt.   11  a1  -0.07515 X
     Occ.    4  a1  ---  Virt.    7  b1  -0.74109 X
     Occ.    4  a1  ---  Virt.    7  b1   0.17563 Y
     Occ.    4  a1  ---  Virt.   10  b1   0.06110 X
  ----------------------------------------------------------------------------
  Root   6 singlet a1             0.298998810 a.u.                8.1362 eV 
  ----------------------------------------------------------------------------
     Transition Moments    X -0.00000   Y -0.00000   Z  1.37084
     Transition Moments   XX -4.28594  XY  0.00000  XZ  0.00000
     Transition Moments   YY  0.96943  YZ  0.00000  ZZ -0.84396
     Dipole Oscillator Strength                    0.3745859597
     Electric Quadrupole                           0.0000010143
     Magnetic Dipole                               0.0000000000
     Total Oscillator Strength                     0.3745869740
 
     Occ.    3  b1  ---  Virt.    7  b1  -0.79573 X
     Occ.    3  b1  ---  Virt.    7  b1   0.22508 Y
     Occ.    4  a1  ---  Virt.    6  a1  -0.55542 X
     Occ.    4  a1  ---  Virt.    6  a1   0.24521 Y
     Occ.    4  a1  ---  Virt.    8  a1  -0.19690 X
     Occ.    5  b2  ---  Virt.    9  b2  -0.36044 X
     Occ.    5  b2  ---  Virt.    9  b2  -0.05625 Y
  ----------------------------------------------------------------------------
  Root   7 singlet b2             0.394511450 a.u.               10.7352 eV 
  ----------------------------------------------------------------------------
     Transition Moments    X  0.00000   Y  0.55615   Z -0.00000
     Transition Moments   XX -0.00000  XY  0.00000  XZ  0.00000
     Transition Moments   YY -0.00000  YZ  0.88840  ZZ  0.00000
     Dipole Oscillator Strength                    0.0813493089
     Electric Quadrupole                           0.0000002581
     Magnetic Dipole                               0.0000000277
     Total Oscillator Strength                     0.0813495947
 
     Occ.    5  b2  ---  Virt.    8  a1  -0.99774 X
     Occ.    5  b2  ---  Virt.   11  a1   0.05739 X
  ----------------------------------------------------------------------------
  Root   8 singlet a1             0.425574913 a.u.               11.5805 eV 
  ----------------------------------------------------------------------------
     Transition Moments    X  0.00000   Y  0.00000   Z -0.21825
     Transition Moments   XX  0.43690  XY  0.00000  XZ -0.00000
     Transition Moments   YY  1.50149  YZ -0.00000  ZZ -0.97895
     Dipole Oscillator Strength                    0.0135142720
     Electric Quadrupole                           0.0000006355
     Magnetic Dipole                               0.0000000000
     Total Oscillator Strength                     0.0135149076
 
     Occ.    3  b1  ---  Virt.    7  b1   0.09621 X
     Occ.    4  a1  ---  Virt.    6  a1   0.08198 X
     Occ.    4  a1  ---  Virt.    8  a1   0.71683 X
     Occ.    4  a1  ---  Virt.   11  a1  -0.06058 X
     Occ.    5  b2  ---  Virt.    9  b2  -0.68301 X
  ----------------------------------------------------------------------------
  Root   9 singlet a2             0.443445830 a.u.               12.0668 eV 
  ----------------------------------------------------------------------------
     Transition Moments    X  0.00000   Y -0.00000   Z -0.00000
     Transition Moments   XX  0.00000  XY  0.96887  XZ -0.00000
     Transition Moments   YY  0.00000  YZ -0.00000  ZZ -0.00000
     Dipole Oscillator Strength                    0.0000000000
     Electric Quadrupole                           0.0000004359
     Magnetic Dipole                               0.0000000065
     Total Oscillator Strength                     0.0000004424
 
     Occ.    5  b2  ---  Virt.   10  b1  -0.99949 X
  ----------------------------------------------------------------------------
  Root  10 singlet b2             0.450323654 a.u.               12.2539 eV 
  ----------------------------------------------------------------------------
     Transition Moments    X  0.00000   Y  0.22415   Z -0.00000
     Transition Moments   XX  0.00000  XY  0.00000  XZ -0.00000
     Transition Moments   YY -0.00000  YZ -0.94863  ZZ  0.00000
     Dipole Oscillator Strength                    0.0150842870
     Electric Quadrupole                           0.0000004376
     Magnetic Dipole                               0.0000003048
     Total Oscillator Strength                     0.0150850294
 
     Occ.    4  a1  ---  Virt.    9  b2   0.97815 X
     Occ.    5  b2  ---  Virt.   11  a1   0.20747 X
 
              Target root =      1
          Target symmetry = none
      Ground state energy =    -76.120359873099
        Excitation energy =      0.061765728971
     Excited state energy =    -76.058594144128
 
  stored tddft:energy   -76.0585941441280     

 Task  times  cpu:        1.7s     wall:        3.5s
 
 
                                NWChem Input Module
                                -------------------
 
 
 Summary of allocated global arrays
-----------------------------------
  No active global arrays



                         GA Statistics for process    0
                         ------------------------------

       create   destroy   get      put      acc     scatter   gather  read&inc
calls:  985      985     5.78e+04 2.31e+04 1.14e+04  410        0       42     
number of processes/call 1.15e+00 1.11e+00 1.78e+00 0.00e+00 0.00e+00
bytes total:             1.54e+07 3.03e+06 8.20e+06 5.52e+02 0.00e+00 3.36e+02
bytes remote:            5.50e+06 4.35e+05 5.93e+06 0.00e+00 0.00e+00 0.00e+00
Max memory consumed for GA by this process: 1874128 bytes
 
MA_summarize_allocated_blocks: starting scan ...
MA_summarize_allocated_blocks: scan completed: 0 heap blocks, 0 stack blocks
MA usage statistics:

	allocation statistics:
					      heap	     stack
					      ----	     -----
	current number of blocks	         0	         0
	maximum number of blocks	        22	        51
	current total bytes		         0	         0
	maximum total bytes		   1455360	  22510856
	maximum total K-bytes		      1456	     22511
	maximum total M-bytes		         2	        23
 
 
                                     CITATION
                                     --------
                Please cite the following reference when publishing
                           results obtained with NWChem:
 
                 M. Valiev, E.J. Bylaska, N. Govind, K. Kowalski,
              T.P. Straatsma, H.J.J. van Dam, D. Wang, J. Nieplocha,
                        E. Apra, T.L. Windus, W.A. de Jong
                 "NWChem: a comprehensive and scalable open-source
                  solution for large scale molecular simulations"
                      Comput. Phys. Commun. 181, 1477 (2010)
                           doi:10.1016/j.cpc.2010.04.018
 
                                      AUTHORS
                                      -------
          E. Apra, E. J. Bylaska, W. A. de Jong, N. Govind, K. Kowalski,
       T. P. Straatsma, M. Valiev, H. J. J. van Dam, D. Wang, T. L. Windus,
        J. Hammond, J. Autschbach, K. Bhaskaran-Nair, J. Brabec, K. Lopata,
    S. A. Fischer, S. Krishnamoorthy, M. Jacquelin, W. Ma, M. Klemm, O. Villa,
      Y. Chen, V. Anisimov, F. Aquino, S. Hirata, M. T. Hackler, V. Konjkov,
            D. Mejia-Rodriguez, T. Risthaus, M. Malagoli, A. Marenich,
   A. Otero-de-la-Roza, J. Mullin, P. Nichols, R. Peverati, J. Pittner, Y. Zhao,
        P.-D. Fan, A. Fonari, M. J. Williamson, R. J. Harrison, J. R. Rehr,
      M. Dupuis, D. Silverstein, D. M. A. Smith, J. Nieplocha, V. Tipparaju,
    M. Krishnan, B. E. Van Kuiken, A. Vazquez-Mayagoitia, L. Jensen, M. Swart,
      Q. Wu, T. Van Voorhis, A. A. Auer, M. Nooijen, L. D. Crosby, E. Brown,
      G. Cisneros, G. I. Fann, H. Fruchtl, J. Garza, K. Hirao, R. A. Kendall,
      J. A. Nichols, K. Tsemekhman, K. Wolinski, J. Anchell, D. E. Bernholdt,
      P. Borowski, T. Clark, D. Clerc, H. Dachsel, M. J. O. Deegan, K. Dyall,
    D. Elwood, E. Glendening, M. Gutowski, A. C. Hess, J. Jaffe, B. G. Johnson,
     J. Ju, R. Kobayashi, R. Kutteh, Z. Lin, R. Littlefield, X. Long, B. Meng,
      T. Nakajima, S. Niu, L. Pollack, M. Rosing, K. Glaesemann, G. Sandrone,
      M. Stave, H. Taylor, G. Thomas, J. H. van Lenthe, A. T. Wong, Z. Zhang.

 Total times  cpu:        1.7s     wall:        4.6s
