
                                 *****************
                                 * O   R   C   A *
                                 *****************

                                            #,                                       
                                            ###                                      
                                            ####                                     
                                            #####                                    
                                            ######                                   
                                           ########,                                 
                                     ,,################,,,,,                         
                               ,,#################################,,                 
                          ,,##########################################,,             
                       ,#########################################, ''#####,          
                    ,#############################################,,   '####,        
                  ,##################################################,,,,####,       
                ,###########''''           ''''###############################       
              ,#####''   ,,,,##########,,,,          '''####'''          '####       
            ,##' ,,,,###########################,,,                        '##       
           ' ,,###''''                  '''############,,,                           
         ,,##''                                '''############,,,,        ,,,,,,###''
      ,#''                                            '''#######################'''  
     '                                                          ''''####''''         
             ,#######,   #######,   ,#######,      ##                                
            ,#'     '#,  ##    ##  ,#'     '#,    #''#        ######   ,####,        
            ##       ##  ##   ,#'  ##            #'  '#       #        #'  '#        
            ##       ##  #######   ##           ,######,      #####,   #    #        
            '#,     ,#'  ##    ##  '#,     ,#' ,#      #,         ##   #,  ,#        
             '#######'   ##     ##  '#######'  #'      '#     #####' # '####'        



                  #######################################################
                  #                        -***-                        #
                  #          Department of theory and spectroscopy      #
                  #    Directorship and core code : Frank Neese         #
                  #        Max Planck Institute fuer Kohlenforschung    #
                  #                Kaiser Wilhelm Platz 1               #
                  #                 D-45470 Muelheim/Ruhr               #
                  #                      Germany                        #
                  #                                                     #
                  #                  All rights reserved                #
                  #                        -***-                        #
                  #######################################################


                         Program Version 5.0.1 -  RELEASE  -


 With contributions from (in alphabetic order):
   Daniel Aravena         : Magnetic Suceptibility
   Michael Atanasov       : Ab Initio Ligand Field Theory (pilot matlab implementation)
   Alexander A. Auer      : GIAO ZORA, VPT2 properties, NMR spectrum
   Ute Becker             : Parallelization
   Giovanni Bistoni       : ED, misc. LED, open-shell LED, HFLD
   Martin Brehm           : Molecular dynamics
   Dmytro Bykov           : SCF Hessian
   Vijay G. Chilkuri      : MRCI spin determinant printing, contributions to CSF-ICE
   Dipayan Datta          : RHF DLPNO-CCSD density
   Achintya Kumar Dutta   : EOM-CC, STEOM-CC
   Dmitry Ganyushin       : Spin-Orbit,Spin-Spin,Magnetic field MRCI
   Miquel Garcia          : C-PCM and meta-GGA Hessian, CC/C-PCM, Gaussian charge scheme
   Yang Guo               : DLPNO-NEVPT2, F12-NEVPT2, CIM, IAO-localization
   Andreas Hansen         : Spin unrestricted coupled pair/coupled cluster methods
   Benjamin Helmich-Paris : MC-RPA, TRAH-SCF, COSX integrals
   Lee Huntington         : MR-EOM, pCC
   Robert Izsak           : Overlap fitted RIJCOSX, COSX-SCS-MP3, EOM
   Marcus Kettner         : VPT2
   Christian Kollmar      : KDIIS, OOCD, Brueckner-CCSD(T), CCSD density, CASPT2, CASPT2-K
   Simone Kossmann        : Meta GGA functionals, TD-DFT gradient, OOMP2, MP2 Hessian
   Martin Krupicka        : Initial AUTO-CI
   Lucas Lang             : DCDCAS
   Marvin Lechner         : AUTO-CI (C++ implementation), FIC-MRCC
   Dagmar Lenk            : GEPOL surface, SMD
   Dimitrios Liakos       : Extrapolation schemes; Compound Job, initial MDCI parallelization
   Dimitrios Manganas     : Further ROCIS development; embedding schemes
   Dimitrios Pantazis     : SARC Basis sets
   Anastasios Papadopoulos: AUTO-CI, single reference methods and gradients
   Taras Petrenko         : DFT Hessian,TD-DFT gradient, ASA, ECA, R-Raman, ABS, FL, XAS/XES, NRVS
   Peter Pinski           : DLPNO-MP2, DLPNO-MP2 Gradient
   Christoph Reimann      : Effective Core Potentials
   Marius Retegan         : Local ZFS, SOC
   Christoph Riplinger    : Optimizer, TS searches, QM/MM, DLPNO-CCSD(T), (RO)-DLPNO pert. Triples
   Tobias Risthaus        : Range-separated hybrids, TD-DFT gradient, RPA, STAB
   Michael Roemelt        : Original ROCIS implementation
   Masaaki Saitow         : Open-shell DLPNO-CCSD energy and density
   Barbara Sandhoefer     : DKH picture change effects
   Avijit Sen             : IP-ROCIS
   Kantharuban Sivalingam : CASSCF convergence, NEVPT2, FIC-MRCI
   Bernardo de Souza      : ESD, SOC TD-DFT
   Georgi Stoychev        : AutoAux, RI-MP2 NMR, DLPNO-MP2 response
   Willem Van den Heuvel  : Paramagnetic NMR
   Boris Wezisla          : Elementary symmetry handling
   Frank Wennmohs         : Technical directorship


 We gratefully acknowledge several colleagues who have allowed us to
 interface, adapt or use parts of their codes:
   Stefan Grimme, W. Hujo, H. Kruse, P. Pracht,  : VdW corrections, initial TS optimization,
                  C. Bannwarth, S. Ehlert          DFT functionals, gCP, sTDA/sTD-DF
   Ed Valeev, F. Pavosevic, A. Kumar             : LibInt (2-el integral package), F12 methods
   Garnet Chan, S. Sharma, J. Yang, R. Olivares  : DMRG
   Ulf Ekstrom                                   : XCFun DFT Library
   Mihaly Kallay                                 : mrcc  (arbitrary order and MRCC methods)
   Jiri Pittner, Ondrej Demel                    : Mk-CCSD
   Frank Weinhold                                : gennbo (NPA and NBO analysis)
   Christopher J. Cramer and Donald G. Truhlar   : smd solvation model
   Lars Goerigk                                  : TD-DFT with DH, B97 family of functionals
   V. Asgeirsson, H. Jonsson                     : NEB implementation
   FAccTs GmbH                                   : IRC, NEB, NEB-TS, DLPNO-Multilevel, CI-OPT
                                                   MM, QMMM, 2- and 3-layer-ONIOM, Crystal-QMMM,
                                                   LR-CPCM, SF, NACMEs, symmetry and pop. for TD-DFT,
                                                   nearIR, NL-DFT gradient (VV10), updates on ESD,
                                                   ML-optimized integration grids
   S Lehtola, MJT Oliveira, MAL Marques          : LibXC Library
   Liviu Ungur et al                             : ANISO software


 Your calculation uses the libint2 library for the computation of 2-el integrals
 For citations please refer to: http://libint.valeyev.net

 Your ORCA version has been built with support for libXC version: 5.1.0
 For citations please refer to: https://tddft.org/programs/libxc/

 This ORCA versions uses:
   CBLAS   interface :  Fast vector & matrix operations
   LAPACKE interface :  Fast linear algebra routines
   SCALAPACK package :  Parallel linear algebra routines
   Shared memory     :  Shared parallel matrices
   BLAS/LAPACK       :  OpenBLAS 0.3.15  USE64BITINT DYNAMIC_ARCH NO_AFFINITY Zen SINGLE_THREADED
        Core in use  :  Zen
   Copyright (c) 2011-2014, The OpenBLAS Project


================================================================================

----- Orbital basis set information -----
Your calculation utilizes the basis: 6-31+G*
   H-He, Li-Ne : W. J. Hehre, R. Ditchfield and J.A. Pople, J. Chem. Phys. 56, 2257 (1972).
                 Note: He and Ne are unpublished basis sets taken from the Gaussian program.
                 Note: Li and B from J. D. Dill and J. A. Pople, J. Chem. Phys. 62, 2921 (1975).
   Na - Ar     : M. M. Francl, W. J. Pietro, W. J. Hehre, J. S. Binkley, M. S. Gordon, 
                 D. J. DeFrees and J. A. Pople, J. Chem. Phys. 77, 3654 (1982).
   K - Zn      : V. A. Rassolov, J. A. Pople, M. A. Ratner, and T. L. Windus, J. Chem. Phys. 109, 1223 (1998).
   Additional Pol./Diff. from the 6-311G equivalent.

================================================================================
                                        WARNINGS
                       Please study these warnings very carefully!
================================================================================


WARNING: The environment variable RSH_COMMAND is not set!
  ===> : All Displacements for the Numerical Hessian calculation
         will be started on localhost

WARNING: Geometry Optimization
  ===> : Switching off AutoStart
         For restart on a previous wavefunction, please use MOREAD

INFO   : the flag for use of the SHARK integral package has been found!

================================================================================
                                       INPUT FILE
================================================================================
NAME = orc_h2o_hf_nosmd_raman.inp
|  1> !HF 6-31+G* opt numfreq 
|  2> %pal nprocs 8 end
|  3> %elprop Polar 1 end
|  4> * xyz 0 1
|  5>     O       2.2186344E-01  6.4623884E-02  0.0000000E+00                      
|  6>     H      -1.0869454E+00  1.3371949E+00  0.0000000E+00                      
|  7>     H      -6.8796211E-01 -1.8541860E+00  0.0000000E+00
|  8> *
|  9> 
| 10> 
| 11>                          ****END OF INPUT****
================================================================================

                       *****************************
                       * Geometry Optimization Run *
                       *****************************

Geometry optimization settings:
Update method            Update   .... BFGS
Choice of coordinates    CoordSys .... Z-matrix Internals
Initial Hessian          InHess   .... Almoef's Model

Convergence Tolerances:
Energy Change            TolE     ....  5.0000e-06 Eh
Max. Gradient            TolMAXG  ....  3.0000e-04 Eh/bohr
RMS Gradient             TolRMSG  ....  1.0000e-04 Eh/bohr
Max. Displacement        TolMAXD  ....  4.0000e-03 bohr
RMS Displacement         TolRMSD  ....  2.0000e-03 bohr
Strict Convergence                ....  False
------------------------------------------------------------------------------
                        ORCA OPTIMIZATION COORDINATE SETUP
------------------------------------------------------------------------------

The optimization will be done in new redundant internal coordinates
Making redundant internal coordinates   ...  (new redundants) done
Evaluating the initial hessian          ...  (Almloef) done
Evaluating the coordinates              ...  done
Calculating the B-matrix                .... done
Calculating the G-matrix                .... done
Diagonalizing the G-matrix              .... done
The first mode is                       ....    0
The number of degrees of freedom        ....    3

    -----------------------------------------------------------------
                    Redundant Internal Coordinates


    -----------------------------------------------------------------
         Definition                    Initial Value    Approx d2E/dq
    -----------------------------------------------------------------
      1. B(H   1,O   0)                  1.8255         0.021634   
      2. B(H   2,O   0)                  2.1236         0.007237   
      3. A(H   1,O   0,H   2)          108.8272         0.132086   
    -----------------------------------------------------------------

Number of atoms                         .... 3
Number of degrees of freedom            .... 3

         *************************************************************
         *                GEOMETRY OPTIMIZATION CYCLE   1            *
         *************************************************************
---------------------------------
CARTESIAN COORDINATES (ANGSTROEM)
---------------------------------
  O      0.221863    0.064624    0.000000
  H     -1.086945    1.337195    0.000000
  H     -0.687962   -1.854186    0.000000

----------------------------
CARTESIAN COORDINATES (A.U.)
----------------------------
  NO LB      ZA    FRAG     MASS         X           Y           Z
   0 O     8.0000    0    15.999    0.419261    0.122121    0.000000
   1 H     1.0000    0     1.008   -2.054029    2.526932    0.000000
   2 H     1.0000    0     1.008   -1.300060   -3.503904    0.000000

--------------------------------
INTERNAL COORDINATES (ANGSTROEM)
--------------------------------
 O      0   0   0     0.000000000000     0.00000000     0.00000000
 H      1   0   0     1.825491049122     0.00000000     0.00000000
 H      1   2   0     2.123585153077   108.82722393     0.00000000

---------------------------
INTERNAL COORDINATES (A.U.)
---------------------------
 O      0   0   0     0.000000000000     0.00000000     0.00000000
 H      1   0   0     3.449678142766     0.00000000     0.00000000
 H      1   2   0     4.012994361377   108.82722393     0.00000000

---------------------
BASIS SET INFORMATION
---------------------
There are 2 groups of distinct atoms

 Group   1 Type O   : 11s5p1d contracted to 4s3p1d pattern {6311/311/1}
 Group   2 Type H   : 4s contracted to 2s pattern {31}

Atom   0O    basis set group =>   1
Atom   1H    basis set group =>   2
Atom   2H    basis set group =>   2


           ************************************************************
           *        Program running with 8 parallel MPI-processes     *
           *              working on a common directory               *
           ************************************************************
------------------------------------------------------------------------------
                           ORCA GTO INTEGRAL CALCULATION
------------------------------------------------------------------------------
------------------------------------------------------------------------------
                   ___                                                        
                  /   \      - P O W E R E D   B Y -                         
                 /     \                                                     
                 |  |  |   _    _      __       _____    __    __             
                 |  |  |  | |  | |    /  \     |  _  \  |  |  /  |          
                  \  \/   | |  | |   /    \    | | | |  |  | /  /          
                 / \  \   | |__| |  /  /\  \   | |_| |  |  |/  /          
                |  |  |   |  __  | /  /__\  \  |    /   |      \           
                |  |  |   | |  | | |   __   |  |    \   |  |\   \          
                \     /   | |  | | |  |  |  |  | |\  \  |  | \   \       
                 \___/    |_|  |_| |__|  |__|  |_| \__\ |__|  \__/        
                                                                              
                      - O R C A' S   B I G   F R I E N D -                    
                                      &                                       
                       - I N T E G R A L  F E E D E R -                       
                                                                              
 v1 FN, 2020, v2 2021                                                         
------------------------------------------------------------------------------


Reading SHARK input file orc_h2o_hf_nosmd_raman.SHARKINP.tmp ... ok
----------------------
SHARK INTEGRAL PACKAGE
----------------------

Number of atoms                             ...      3
Number of basis functions                   ...     22
Number of shells                            ...     12
Maximum angular momentum                    ...      2
Integral batch strategy                     ... SHARK/LIBINT Hybrid
RI-J (if used) integral strategy            ... SPLIT-RIJ (Revised 2003 algorithm where possible)
Printlevel                                  ...      1
Contraction scheme used                     ... SEGMENTED contraction
Coulomb Range Separation                    ... NOT USED
Exchange Range Separation                   ... NOT USED
Finite Nucleus Model                        ... NOT USED
Auxiliary Coulomb fitting basis             ... NOT available
Auxiliary J/K fitting basis                 ... NOT available
Auxiliary Correlation fitting basis         ... NOT available
Auxiliary 'external' fitting basis          ... NOT available
Integral threshold                          ...     2.500000e-11
Primitive cut-off                           ...     2.500000e-12
Primitive pair pre-selection threshold      ...     2.500000e-12

Calculating pre-screening integrals         ... done (  0.1 sec) Dimension = 12
Organizing shell pair data                  ... done (  0.1 sec)
Shell pair information
Total number of shell pairs                 ...        78
Shell pairs after pre-screening             ...        78
Total number of primitive shell pairs       ...       352
Primitive shell pairs kept                  ...       315
          la=0 lb=0:     36 shell pairs
          la=1 lb=0:     24 shell pairs
          la=1 lb=1:      6 shell pairs
          la=2 lb=0:      8 shell pairs
          la=2 lb=1:      3 shell pairs
          la=2 lb=2:      1 shell pairs

Calculating one electron integrals          ... done (  0.0 sec)
Calculating Nuclear repulsion               ... done (  0.0 sec) ENN=      4.477114455444 Eh

SHARK setup successfully completed in   0.2 seconds

Maximum memory used throughout the entire GTOINT-calculation: 7.5 MB


           ************************************************************
           *        Program running with 8 parallel MPI-processes     *
           *              working on a common directory               *
           ************************************************************
-------------------------------------------------------------------------------
                                 ORCA SCF
-------------------------------------------------------------------------------

------------
SCF SETTINGS
------------
Hamiltonian:
 Ab initio Hamiltonian  Method          .... Hartree-Fock(GTOs)


General Settings:
 Integral files         IntName         .... orc_h2o_hf_nosmd_raman
 Hartree-Fock type      HFTyp           .... RHF
 Total Charge           Charge          ....    0
 Multiplicity           Mult            ....    1
 Number of Electrons    NEL             ....   10
 Basis Dimension        Dim             ....   22
 Nuclear Repulsion      ENuc            ....      4.4771144554 Eh

Convergence Acceleration:
 DIIS                   CNVDIIS         .... on
   Start iteration      DIISMaxIt       ....    12
   Startup error        DIISStart       ....  0.200000
   # of expansion vecs  DIISMaxEq       ....     5
   Bias factor          DIISBfac        ....   1.050
   Max. coefficient     DIISMaxC        ....  10.000
 Trust-Rad. Augm. Hess. CNVTRAH         .... auto
   Auto Start mean grad. ratio tolernc. ....  1.125000
   Auto Start start iteration           ....    20
   Auto Start num. interpolation iter.  ....    10
   Max. Number of Micro iterations      ....    16
   Max. Number of Macro iterations      .... Maxiter - #DIIS iter
   Number of Davidson start vectors     ....     2
   Converg. threshold I  (grad. norm)   ....   1.000e-05
   Converg. threshold II (energy diff.) ....   1.000e-08
   Grad. Scal. Fac. for Micro threshold ....   0.100
   Minimum threshold for Micro iter.    ....   0.010
   NR start threshold (gradient norm)   ....   0.001
   Initial trust radius                 ....   0.400
   Minimum AH scaling param. (alpha)    ....   1.000
   Maximum AH scaling param. (alpha)    .... 1000.000
   Orbital update algorithm             .... Taylor
   White noise on init. David. guess    .... on
   Maximum white noise                  ....   0.010
   Quad. conv. algorithm                .... NR
 SOSCF                  CNVSOSCF        .... on
   Start iteration      SOSCFMaxIt      ....   150
   Startup grad/error   SOSCFStart      ....  0.003300
 Level Shifting         CNVShift        .... on
   Level shift para.    LevelShift      ....    0.2500
   Turn off err/grad.   ShiftErr        ....    0.0010
 Zerner damping         CNVZerner       .... off
 Static damping         CNVDamp         .... on
   Fraction old density DampFac         ....    0.7000
   Max. Damping (<1)    DampMax         ....    0.9800
   Min. Damping (>=0)   DampMin         ....    0.0000
   Turn off err/grad.   DampErr         ....    0.1000
 Fernandez-Rico         CNVRico         .... off

SCF Procedure:
 Maximum # iterations   MaxIter         ....   125
 SCF integral mode      SCFMode         .... Direct
   Integral package                     .... SHARK and LIBINT hybrid scheme
 Reset frequency        DirectResetFreq ....    20
 Integral Threshold     Thresh          ....  2.500e-11 Eh
 Primitive CutOff       TCut            ....  2.500e-12 Eh

Convergence Tolerance:
 Convergence Check Mode ConvCheckMode   .... Total+1el-Energy
 Convergence forced     ConvForced      .... 0
 Energy Change          TolE            ....  1.000e-08 Eh
 1-El. energy change                    ....  1.000e-05 Eh
 Orbital Gradient       TolG            ....  1.000e-05
 Orbital Rotation angle TolX            ....  1.000e-05
 DIIS Error             TolErr          ....  5.000e-07


Diagonalization of the overlap matrix:
Smallest eigenvalue                        ... 6.265e-02
Time for diagonalization                   ...    0.000 sec
Threshold for overlap eigenvalues          ... 1.000e-08
Number of eigenvalues below threshold      ... 0
Time for construction of square roots      ...    0.039 sec
Total time needed                          ...    0.039 sec

Time for model grid setup =    0.073 sec

------------------------------
INITIAL GUESS: MODEL POTENTIAL
------------------------------
Loading Hartree-Fock densities                     ... done
Calculating cut-offs                               ... done
Initializing the effective Hamiltonian             ... done
Setting up the integral package (SHARK)            ... done
Starting the Coulomb interaction                   ... done (   0.1 sec)
Reading the grid                                   ... done
Mapping shells                                     ... done
Starting the XC term evaluation                    ... done (   0.0 sec)
Transforming the Hamiltonian                       ... done (   0.0 sec)
Diagonalizing the Hamiltonian                      ... done (   0.0 sec)
Back transforming the eigenvectors                 ... done (   0.0 sec)
Now organizing SCF variables                       ... done
                      ------------------
                      INITIAL GUESS DONE (   0.1 sec)
                      ------------------
--------------
SCF ITERATIONS
--------------
ITER       Energy         Delta-E        Max-DP      RMS-DP      [F,P]     Damp
               ***  Starting incremental Fock matrix formation  ***
  0    -75.2576775216   0.000000000000 0.14613237  0.01409671  0.4753137 0.7000
  1    -75.4134437012  -0.155766179624 0.10032267  0.00962666  0.2159684 0.7000
                               ***Turning on DIIS***
  2    -75.4630853204  -0.049641619191 0.15073037  0.01471549  0.0601588 0.0000
  3    -74.8120089338   0.651076386637 0.01579396  0.00184332  0.1864694 0.7000
  4    -75.0026365645  -0.190627630758 0.01590824  0.00194777  0.1506305 0.7000
  5    -75.2007760502  -0.198139485660 0.01531147  0.00161636  0.1142555 0.7000
  6    -75.3410708063  -0.140294756129 0.05093981  0.00434978  0.0838700 0.0000
  7    -75.6136067156  -0.272535909286 0.00855688  0.00088592  0.0136581 0.0000
  8    -75.5921156509   0.021491064750 0.00986470  0.00084576  0.0085336 0.0000
                      *** Initiating the SOSCF procedure ***
                           *** Shutting down DIIS ***
                      *** Re-Reading the Fockian *** 
                      *** Removing any level shift *** 
ITER      Energy       Delta-E        Grad      Rot      Max-DP    RMS-DP
  9    -75.58861003   0.0035056184  0.002821  0.002821  0.003771  0.000367
               *** Restarting incremental Fock matrix formation ***
 10    -75.58184048   0.0067695514  0.000806  0.002282  0.001993  0.000184
 11    -75.58184463  -0.0000041451  0.000704  0.001035  0.001340  0.000155
 12    -75.58184827  -0.0000036467  0.000323  0.000168  0.000286  0.000036
 13    -75.58184866  -0.0000003832  0.000084  0.000245  0.000244  0.000029
 14    -75.58184876  -0.0000001041  0.000035  0.000154  0.000142  0.000014
 15    -75.58184879  -0.0000000259  0.000035  0.000256  0.000258  0.000023
 16    -75.58184882  -0.0000000295  0.000019  0.000176  0.000193  0.000018
 17    -75.58184883  -0.0000000175  0.000019  0.000176  0.000174  0.000018
 18    -75.58184885  -0.0000000138  0.000013  0.000079  0.000068  0.000007
 19    -75.58184885  -0.0000000042  0.000007  0.000021  0.000020  0.000002
                 **** Energy Check signals convergence ****
              ***Rediagonalizing the Fockian in SOSCF/NRSCF***

               *****************************************************
               *                     SUCCESS                       *
               *           SCF CONVERGED AFTER  20 CYCLES          *
               *****************************************************


----------------
TOTAL SCF ENERGY
----------------

Total Energy       :          -75.58184885 Eh           -2056.68667 eV

Components:
Nuclear Repulsion  :            4.47711446 Eh             121.82848 eV
Electronic Energy  :          -80.05896331 Eh           -2178.51515 eV
One Electron Energy:         -113.61879682 Eh           -3091.72464 eV
Two Electron Energy:           33.55983351 Eh             913.20950 eV

Virial components:
Potential Energy   :         -150.30240166 Eh           -4089.93628 eV
Kinetic Energy     :           74.72055281 Eh            2033.24961 eV
Virial Ratio       :            2.01152690


---------------
SCF CONVERGENCE
---------------

  Last Energy change         ...   -7.4134e-10  Tolerance :   1.0000e-08
  Last MAX-Density change    ...    6.4564e-06  Tolerance :   1.0000e-07
  Last RMS-Density change    ...    8.9134e-07  Tolerance :   5.0000e-09
  Last Orbital Gradient      ...    1.7076e-06  Tolerance :   1.0000e-05
  Last Orbital Rotation      ...    1.0715e-05  Tolerance :   1.0000e-05

             **** THE GBW FILE WAS UPDATED (orc_h2o_hf_nosmd_raman.gbw) ****
             **** DENSITY orc_h2o_hf_nosmd_raman.scfp WAS UPDATED ****
             **** ENERGY FILE WAS UPDATED (orc_h2o_hf_nosmd_raman.en.tmp) ****
             **** THE GBW FILE WAS UPDATED (orc_h2o_hf_nosmd_raman.gbw) ****
             **** DENSITY orc_h2o_hf_nosmd_raman.scfp WAS UPDATED ****
----------------
ORBITAL ENERGIES
----------------

  NO   OCC          E(Eh)            E(eV) 
   0   2.0000     -20.678909      -562.7017 
   1   2.0000      -1.202632       -32.7253 
   2   2.0000      -0.510458       -13.8903 
   3   2.0000      -0.449576       -12.2336 
   4   2.0000      -0.407986       -11.1019 
   5   0.0000      -0.055031        -1.4975 
   6   0.0000       0.007832         0.2131 
   7   0.0000       0.258095         7.0231 
   8   0.0000       0.260392         7.0856 
   9   0.0000       0.307787         8.3753 
  10   0.0000       0.328649         8.9430 
  11   0.0000       1.006119        27.3779 
  12   0.0000       1.023448        27.8494 
  13   0.0000       1.408185        38.3187 
  14   0.0000       1.428722        38.8775 
  15   0.0000       1.462958        39.8091 
  16   0.0000       1.686674        45.8967 
  17   0.0000       2.099463        57.1293 
  18   0.0000       2.106997        57.3343 
  19   0.0000       2.112368        57.4805 
  20   0.0000       2.128758        57.9264 
  21   0.0000       2.137505        58.1645 

                    ********************************
                    * MULLIKEN POPULATION ANALYSIS *
                    ********************************

-----------------------
MULLIKEN ATOMIC CHARGES
-----------------------
   0 O :   -0.569069
   1 H :    0.298325
   2 H :    0.270743
Sum of atomic charges:   -0.0000000

--------------------------------
MULLIKEN REDUCED ORBITAL CHARGES
--------------------------------
  0 O s       :     4.011343  s :     4.011343
      pz      :     1.999920  p :     4.554594
      px      :     1.349182
      py      :     1.205492
      dz2     :     0.000716  d :     0.003131
      dxz     :     0.000078
      dyz     :     0.000002
      dx2y2   :     0.000101
      dxy     :     0.002234
  1 H s       :     0.701675  s :     0.701675
  2 H s       :     0.729257  s :     0.729257


                     *******************************
                     * LOEWDIN POPULATION ANALYSIS *
                     *******************************

----------------------
LOEWDIN ATOMIC CHARGES
----------------------
   0 O :   -0.708980
   1 H :    0.374171
   2 H :    0.334809

-------------------------------
LOEWDIN REDUCED ORBITAL CHARGES
-------------------------------
  0 O s       :     4.019263  s :     4.019263
      pz      :     1.999920  p :     4.685837
      px      :     1.392628
      py      :     1.293289
      dz2     :     0.000849  d :     0.003881
      dxz     :     0.000078
      dyz     :     0.000002
      dx2y2   :     0.000185
      dxy     :     0.002767
  1 H s       :     0.625829  s :     0.625829
  2 H s       :     0.665191  s :     0.665191


                      *****************************
                      * MAYER POPULATION ANALYSIS *
                      *****************************

  NA   - Mulliken gross atomic population
  ZA   - Total nuclear charge
  QA   - Mulliken gross atomic charge
  VA   - Mayer's total valence
  BVA  - Mayer's bonded valence
  FA   - Mayer's free valence

  ATOM       NA         ZA         QA         VA         BVA        FA
  0 O      8.5691     8.0000    -0.5691     1.8242     1.8242    -0.0000
  1 H      0.7017     1.0000     0.2983     0.9088     0.9088     0.0000
  2 H      0.7293     1.0000     0.2707     0.9260     0.9260     0.0000

  Mayer bond orders larger than 0.100000
B(  0-O ,  1-H ) :   0.9035 B(  0-O ,  2-H ) :   0.9207 

-------
TIMINGS
-------

Total SCF time: 0 days 0 hours 0 min 0 sec 

Total time                  ....       0.595 sec
Sum of individual times     ....       0.390 sec  ( 65.6%)

Fock matrix formation       ....       0.133 sec  ( 22.3%)
Diagonalization             ....       0.023 sec  (  3.8%)
Density matrix formation    ....       0.000 sec  (  0.1%)
Population analysis         ....       0.044 sec  (  7.4%)
Initial guess               ....       0.067 sec  ( 11.3%)
Orbital Transformation      ....       0.000 sec  (  0.0%)
Orbital Orthonormalization  ....       0.000 sec  (  0.0%)
DIIS solution               ....       0.026 sec  (  4.4%)
SOSCF solution              ....       0.024 sec  (  4.1%)

Maximum memory used throughout the entire SCF-calculation: 224.1 MB

-------------------------   --------------------
FINAL SINGLE POINT ENERGY       -75.581848851786
-------------------------   --------------------



           ************************************************************
           *        Program running with 8 parallel MPI-processes     *
           *              working on a common directory               *
           ************************************************************
------------------------------------------------------------------------------
                         ORCA SCF GRADIENT CALCULATION
------------------------------------------------------------------------------

Gradient of the Hartree-Fock SCF energy:
Hartree-Fock type                ... RHF
Number of operators              ...    1
Number of atoms                  ...    3
Basis set dimensions             ...   22
Integral neglect threshold       ... 2.5e-11
Integral primitive cutoff        ... 2.5e-12
SHARK Integral package           ... ON

Nuc. rep. gradient       (SHARK) ... done (  0.0 sec)
HCore & Overlap gradient (SHARK) ... done (  0.0 sec)
Two-Electron gradient    (SHARK) ... done (  0.0 sec)

------------------
CARTESIAN GRADIENT
------------------

   1   O   :    0.102751248   -0.001697318   -0.000000000
   2   H   :   -0.071873613    0.076872789    0.000000000
   3   H   :   -0.030877635   -0.075175471   -0.000000000

Difference to translation invariance:
           :   -0.0000000000   -0.0000000000    0.0000000000

Difference to rotation invariance:
           :    0.0000000000    0.0000000000    0.0000014082

Norm of the cartesian gradient     ...    0.1680497591
RMS gradient                       ...    0.0560165864
MAX gradient                       ...    0.1027512478

-------
TIMINGS
-------

Total SCF gradient time            ...        0.076 sec

One electron gradient       ....       0.002 sec  (  2.0%)
Two electron gradient       ....       0.045 sec  ( 58.7%)

Maximum memory used throughout the entire SCFGRAD-calculation: 12.7 MB
------------------------------------------------------------------------------
                         ORCA GEOMETRY RELAXATION STEP
------------------------------------------------------------------------------

Reading the OPT-File                    .... done
Getting information on internals        .... done
Copying old internal coords+grads       .... done
Making the new internal coordinates     .... (new redundants).... done
Validating the new internal coordinates .... (new redundants).... done
Calculating the B-matrix                .... done
Calculating the G,G- and P matrices     .... done
Transforming gradient to internals      .... done
Projecting the internal gradient        .... done
Number of atoms                         ....   3
Number of internal coordinates          ....   3
Current Energy                          ....   -75.581848852 Eh
Current gradient norm                   ....     0.168049759 Eh/bohr
Maximum allowed component of the step   ....  0.300
Current trust radius                    ....  0.300
Evaluating the initial hessian          ....  (Almloef) done
Projecting the Hessian                  .... done
Forming the augmented Hessian           .... done
Diagonalizing the augmented Hessian     .... done
Last element of RFO vector              ....  0.728122873
Lowest eigenvalues of augmented Hessian:
 -0.125702099  0.012571899  0.124460106
Length of the computed step             ....  0.941388678
Warning: the length of the step is outside the trust region - taking restricted step instead
The input lambda is                     ....    -0.125702
   iter:   1  x=   -0.189138  g=   12.551547 f(x)=     0.796213
   iter:   2  x=   -0.269868  g=    4.117765 f(x)=     0.332428
   iter:   3  x=   -0.353830  g=    1.520496 f(x)=     0.127665
   iter:   4  x=   -0.411005  g=    0.702578 f(x)=     0.040170
   iter:   5  x=   -0.427867  g=    0.456688 f(x)=     0.007700
   iter:   6  x=   -0.428931  g=    0.406655 f(x)=     0.000433
   iter:   7  x=   -0.428935  g=    0.403748 f(x)=     0.000002
   iter:   8  x=   -0.428935  g=    0.403738 f(x)=     0.000000
   iter:   9  x=   -0.428935  g=    0.403738 f(x)=     0.000000
The output lambda is                    ....    -0.428935 (9 iterations)
The final length of the internal step   ....  0.300000000
Converting the step to cartesian space:
 Initial RMS(Int)=    0.1732050808
Transforming coordinates:
 Iter   0:  RMS(Cart)=    0.0982725236 RMS(Int)=    0.1728752973
 Iter   1:  RMS(Cart)=    0.0012327012 RMS(Int)=    0.0013529280
 Iter   2:  RMS(Cart)=    0.0000687929 RMS(Int)=    0.0000905924
 Iter   3:  RMS(Cart)=    0.0000038260 RMS(Int)=    0.0000050479
 Iter   4:  RMS(Cart)=    0.0000002126 RMS(Int)=    0.0000002808
 Iter   5:  RMS(Cart)=    0.0000000118 RMS(Int)=    0.0000000156
done
Storing new coordinates                 .... done

                                .--------------------.
          ----------------------|Geometry convergence|-------------------------
          Item                value                   Tolerance       Converged
          ---------------------------------------------------------------------
          RMS gradient        0.0773200805            0.0001000000      NO
          MAX gradient        0.1051195258            0.0003000000      NO
          RMS step            0.1732050808            0.0020000000      NO
          MAX step            0.2333042680            0.0040000000      NO
          ........................................................
          Max(Bonds)      0.1235      Max(Angles)    1.77
          Max(Dihed)        0.00      Max(Improp)    0.00
          ---------------------------------------------------------------------

The optimization has not yet converged - more geometry cycles are needed


    ---------------------------------------------------------------------------
                         Redundant Internal Coordinates
                            (Angstroem and degrees)

        Definition                    Value    dE/dq     Step     New-Value
    ----------------------------------------------------------------------------
     1. B(H   1,O   0)                1.8255  0.105120 -0.1235    1.7020   
     2. B(H   2,O   0)                2.1236  0.081156 -0.0985    2.0251   
     3. A(H   1,O   0,H   2)          108.83  0.017287   -1.77    107.06   
    ----------------------------------------------------------------------------

         *************************************************************
         *                GEOMETRY OPTIMIZATION CYCLE   2            *
         *************************************************************
---------------------------------
CARTESIAN COORDINATES (ANGSTROEM)
---------------------------------
  O      0.192228    0.070239    0.000000
  H     -1.054052    1.229419    0.000000
  H     -0.691220   -1.752025    0.000000

----------------------------
CARTESIAN COORDINATES (A.U.)
----------------------------
  NO LB      ZA    FRAG     MASS         X           Y           Z
   0 O     8.0000    0    15.999    0.363259    0.132733    0.000000
   1 H     1.0000    0     1.008   -1.991870    2.323264    0.000000
   2 H     1.0000    0     1.008   -1.306217   -3.310848    0.000000

--------------------------------
INTERNAL COORDINATES (ANGSTROEM)
--------------------------------
 O      0   0   0     0.000000000000     0.00000000     0.00000000
 H      1   0   0     1.702031747480     0.00000000     0.00000000
 H      1   2   0     2.025124544306   107.06175071     0.00000000

---------------------------
INTERNAL COORDINATES (A.U.)
---------------------------
 O      0   0   0     0.000000000000     0.00000000     0.00000000
 H      1   0   0     3.216373873977     0.00000000     0.00000000
 H      1   2   0     3.826930775821   107.06175071     0.00000000



           ************************************************************
           *        Program running with 8 parallel MPI-processes     *
           *              working on a common directory               *
           ************************************************************
------------------------------------------------------------------------------
                   ___                                                        
                  /   \      - P O W E R E D   B Y -                         
                 /     \                                                     
                 |  |  |   _    _      __       _____    __    __             
                 |  |  |  | |  | |    /  \     |  _  \  |  |  /  |          
                  \  \/   | |  | |   /    \    | | | |  |  | /  /          
                 / \  \   | |__| |  /  /\  \   | |_| |  |  |/  /          
                |  |  |   |  __  | /  /__\  \  |    /   |      \           
                |  |  |   | |  | | |   __   |  |    \   |  |\   \          
                \     /   | |  | | |  |  |  |  | |\  \  |  | \   \       
                 \___/    |_|  |_| |__|  |__|  |_| \__\ |__|  \__/        
                                                                              
                      - O R C A' S   B I G   F R I E N D -                    
                                      &                                       
                       - I N T E G R A L  F E E D E R -                       
                                                                              
 v1 FN, 2020, v2 2021                                                         
------------------------------------------------------------------------------


Reading SHARK input file orc_h2o_hf_nosmd_raman.SHARKINP.tmp ... ok
----------------------
SHARK INTEGRAL PACKAGE
----------------------

Number of atoms                             ...      3
Number of basis functions                   ...     22
Number of shells                            ...     12
Maximum angular momentum                    ...      2
Integral batch strategy                     ... SHARK/LIBINT Hybrid
RI-J (if used) integral strategy            ... SPLIT-RIJ (Revised 2003 algorithm where possible)
Printlevel                                  ...      1
Contraction scheme used                     ... SEGMENTED contraction
Coulomb Range Separation                    ... NOT USED
Exchange Range Separation                   ... NOT USED
Finite Nucleus Model                        ... NOT USED
Auxiliary Coulomb fitting basis             ... NOT available
Auxiliary J/K fitting basis                 ... NOT available
Auxiliary Correlation fitting basis         ... NOT available
Auxiliary 'external' fitting basis          ... NOT available
Integral threshold                          ...     2.500000e-11
Primitive cut-off                           ...     2.500000e-12
Primitive pair pre-selection threshold      ...     2.500000e-12

Calculating pre-screening integrals         ... done (  0.0 sec) Dimension = 12
Organizing shell pair data                  ... done (  0.0 sec)
Shell pair information
Total number of shell pairs                 ...        78
Shell pairs after pre-screening             ...        78
Total number of primitive shell pairs       ...       352
Primitive shell pairs kept                  ...       319
          la=0 lb=0:     36 shell pairs
          la=1 lb=0:     24 shell pairs
          la=1 lb=1:      6 shell pairs
          la=2 lb=0:      8 shell pairs
          la=2 lb=1:      3 shell pairs
          la=2 lb=2:      1 shell pairs

Calculating one electron integrals          ... done (  0.0 sec)
Calculating Nuclear repulsion               ... done (  0.0 sec) ENN=      4.753911435847 Eh

SHARK setup successfully completed in   0.1 seconds

Maximum memory used throughout the entire GTOINT-calculation: 7.5 MB


           ************************************************************
           *        Program running with 8 parallel MPI-processes     *
           *              working on a common directory               *
           ************************************************************

Diagonalization of the overlap matrix:
Smallest eigenvalue                        ... 5.868e-02
Time for diagonalization                   ...    0.000 sec
Threshold for overlap eigenvalues          ... 1.000e-08
Number of eigenvalues below threshold      ... 0
Time for construction of square roots      ...    0.004 sec
Total time needed                          ...    0.004 sec

--------------
SCF ITERATIONS
--------------
ITER       Energy         Delta-E        Max-DP      RMS-DP      [F,P]     Damp
               ***  Starting incremental Fock matrix formation  ***
  0    -75.6230743310   0.000000000000 0.00419824  0.00048785  0.0199328 0.7000
                      *** Initiating the SOSCF procedure ***
                      *** Re-Reading the Fockian *** 
                      *** Removing any level shift *** 
ITER      Energy       Delta-E        Grad      Rot      Max-DP    RMS-DP
  1    -75.62332583  -0.0002514958  0.002050  0.002050  0.010694  0.001399
               *** Restarting incremental Fock matrix formation ***
  2    -75.62377682  -0.0004509980  0.006398  0.010496  0.011338  0.001229
  3    -75.62372663   0.0000501922  0.006312  0.005488  0.006914  0.000673
  4    -75.62394222  -0.0002155918  0.000680  0.001358  0.001453  0.000170
  5    -75.62394963  -0.0000074047  0.000268  0.001446  0.001609  0.000189
  6    -75.62395337  -0.0000037407  0.000219  0.000791  0.000811  0.000091
  7    -75.62395451  -0.0000011420  0.000195  0.001601  0.001704  0.000161
  8    -75.62395578  -0.0000012721  0.000098  0.000639  0.000620  0.000054
  9    -75.62395603  -0.0000002467  0.000036  0.000213  0.000171  0.000020
 10    -75.62395608  -0.0000000521  0.000015  0.000058  0.000057  0.000006
 11    -75.62395609  -0.0000000057  0.000008  0.000022  0.000022  0.000003
                 **** Energy Check signals convergence ****
              ***Rediagonalizing the Fockian in SOSCF/NRSCF***

               *****************************************************
               *                     SUCCESS                       *
               *           SCF CONVERGED AFTER  12 CYCLES          *
               *****************************************************

Total Energy       :          -75.62395609 Eh           -2057.83246 eV
  Last Energy change         ...   -9.3955e-10  Tolerance :   1.0000e-08
  Last MAX-Density change    ...    8.7340e-06  Tolerance :   1.0000e-07
             **** THE GBW FILE WAS UPDATED (orc_h2o_hf_nosmd_raman.gbw) ****
             **** DENSITY orc_h2o_hf_nosmd_raman.scfp WAS UPDATED ****
             **** ENERGY FILE WAS UPDATED (orc_h2o_hf_nosmd_raman.en.tmp) ****
             **** THE GBW FILE WAS UPDATED (orc_h2o_hf_nosmd_raman.gbw) ****
             **** DENSITY orc_h2o_hf_nosmd_raman.scfp WAS UPDATED ****
Total SCF time: 0 days 0 hours 0 min 0 sec 

Maximum memory used throughout the entire SCF-calculation: 224.1 MB

-------------------------   --------------------
FINAL SINGLE POINT ENERGY       -75.623956089302
-------------------------   --------------------



           ************************************************************
           *        Program running with 8 parallel MPI-processes     *
           *              working on a common directory               *
           ************************************************************
------------------------------------------------------------------------------
                         ORCA SCF GRADIENT CALCULATION
------------------------------------------------------------------------------

Gradient of the Hartree-Fock SCF energy:
Hartree-Fock type                ... RHF
Number of operators              ...    1
Number of atoms                  ...    3
Basis set dimensions             ...   22
Integral neglect threshold       ... 2.5e-11
Integral primitive cutoff        ... 2.5e-12
SHARK Integral package           ... ON

Nuc. rep. gradient       (SHARK) ... done (  0.0 sec)
HCore & Overlap gradient (SHARK) ... done (  0.0 sec)
Two-Electron gradient    (SHARK) ... done (  0.0 sec)

------------------
CARTESIAN GRADIENT
------------------

   1   O   :    0.115260041   -0.001232371   -0.000000000
   2   H   :   -0.080915064    0.083013247    0.000000000
   3   H   :   -0.034344977   -0.081780876   -0.000000000

Difference to translation invariance:
           :   -0.0000000000   -0.0000000000    0.0000000000

Difference to rotation invariance:
           :    0.0000000000    0.0000000000    0.0000015030

Norm of the cartesian gradient     ...    0.1859906763
RMS gradient                       ...    0.0619968921
MAX gradient                       ...    0.1152600411

-------
TIMINGS
-------

Total SCF gradient time            ...        0.031 sec

One electron gradient       ....       0.002 sec  (  4.9%)
Two electron gradient       ....       0.005 sec  ( 15.6%)

Maximum memory used throughout the entire SCFGRAD-calculation: 12.7 MB
------------------------------------------------------------------------------
                         ORCA GEOMETRY RELAXATION STEP
------------------------------------------------------------------------------

Reading the OPT-File                    .... done
Getting information on internals        .... done
Copying old internal coords+grads       .... done
Making the new internal coordinates     .... (new redundants).... done
Validating the new internal coordinates .... (new redundants).... done
Calculating the B-matrix                .... done
Calculating the G,G- and P matrices     .... done
Transforming gradient to internals      .... done
Projecting the internal gradient        .... done
Number of atoms                         ....   3
Number of internal coordinates          ....   3
Current Energy                          ....   -75.623956089 Eh
Current gradient norm                   ....     0.185990676 Eh/bohr
Maximum allowed component of the step   ....  0.300
Current trust radius                    ....  0.300
Updating the Hessian (BFGS)             .... done
Forming the augmented Hessian           .... done
Diagonalizing the augmented Hessian     .... done
Last element of RFO vector              ....  0.653375187
Lowest eigenvalues of augmented Hessian:
 -0.170195462  0.009655171  0.121147461
Length of the computed step             ....  1.158651676
Warning: the length of the step is outside the trust region - taking restricted step instead
The input lambda is                     ....    -0.170195
   iter:   1  x=   -0.229324  g=   21.182150 f(x)=     1.252474
   iter:   2  x=   -0.308873  g=    6.716157 f(x)=     0.534265
   iter:   3  x=   -0.402590  g=    2.306727 f(x)=     0.216179
   iter:   4  x=   -0.485545  g=    0.931244 f(x)=     0.077251
   iter:   5  x=   -0.526366  g=    0.499276 f(x)=     0.020381
   iter:   6  x=   -0.532921  g=    0.383076 f(x)=     0.002511
   iter:   7  x=   -0.533058  g=    0.367892 f(x)=     0.000050
   iter:   8  x=   -0.533058  g=    0.367584 f(x)=     0.000000
   iter:   9  x=   -0.533058  g=    0.367584 f(x)=     0.000000
   iter:  10  x=   -0.533058  g=    0.367584 f(x)=    -0.000000
The output lambda is                    ....    -0.533058 (10 iterations)
The final length of the internal step   ....  0.300000000
Converting the step to cartesian space:
 Initial RMS(Int)=    0.1732050808
Transforming coordinates:
 Iter   0:  RMS(Cart)=    0.0985149408 RMS(Int)=    0.1727955676
 Iter   1:  RMS(Cart)=    0.0014554293 RMS(Int)=    0.0017059104
 Iter   2:  RMS(Cart)=    0.0000858651 RMS(Int)=    0.0001214313
 Iter   3:  RMS(Cart)=    0.0000049811 RMS(Int)=    0.0000070726
 Iter   4:  RMS(Cart)=    0.0000002885 RMS(Int)=    0.0000004103
 Iter   5:  RMS(Cart)=    0.0000000167 RMS(Int)=    0.0000000238
done
Storing new coordinates                 .... done

                                .--------------------.
          ----------------------|Geometry convergence|-------------------------
          Item                value                   Tolerance       Converged
          ---------------------------------------------------------------------
          Energy change      -0.0421072375            0.0000050000      NO
          RMS gradient        0.0848225139            0.0001000000      NO
          MAX gradient        0.1157851200            0.0003000000      NO
          RMS step            0.1732050808            0.0020000000      NO
          MAX step            0.2372534536            0.0040000000      NO
          ........................................................
          Max(Bonds)      0.1255      Max(Angles)    2.01
          Max(Dihed)        0.00      Max(Improp)    0.00
          ---------------------------------------------------------------------

The optimization has not yet converged - more geometry cycles are needed


    ---------------------------------------------------------------------------
                         Redundant Internal Coordinates
                            (Angstroem and degrees)

        Definition                    Value    dE/dq     Step     New-Value
    ----------------------------------------------------------------------------
     1. B(H   1,O   0)                1.7020  0.115785 -0.1255    1.5765   
     2. B(H   2,O   0)                2.0251  0.088572 -0.0954    1.9298   
     3. A(H   1,O   0,H   2)          107.06  0.018261   -2.01    105.05   
    ----------------------------------------------------------------------------

         *************************************************************
         *                GEOMETRY OPTIMIZATION CYCLE   3            *
         *************************************************************
---------------------------------
CARTESIAN COORDINATES (ANGSTROEM)
---------------------------------
  O      0.162098    0.077910    0.000000
  H     -1.020144    1.120792    0.000000
  H     -0.694998   -1.651069    0.000000

----------------------------
CARTESIAN COORDINATES (A.U.)
----------------------------
  NO LB      ZA    FRAG     MASS         X           Y           Z
   0 O     8.0000    0    15.999    0.306320    0.147229    0.000000
   1 H     1.0000    0     1.008   -1.927793    2.117990    0.000000
   2 H     1.0000    0     1.008   -1.313356   -3.120069    0.000000

--------------------------------
INTERNAL COORDINATES (ANGSTROEM)
--------------------------------
 O      0   0   0     0.000000000000     0.00000000     0.00000000
 H      1   0   0     1.576482626503     0.00000000     0.00000000
 H      1   2   0     1.929762538779   105.04753811     0.00000000

---------------------------
INTERNAL COORDINATES (A.U.)
---------------------------
 O      0   0   0     0.000000000000     0.00000000     0.00000000
 H      1   0   0     2.979120418976     0.00000000     0.00000000
 H      1   2   0     3.646722701792   105.04753811     0.00000000



           ************************************************************
           *        Program running with 8 parallel MPI-processes     *
           *              working on a common directory               *
           ************************************************************
------------------------------------------------------------------------------
                   ___                                                        
                  /   \      - P O W E R E D   B Y -                         
                 /     \                                                     
                 |  |  |   _    _      __       _____    __    __             
                 |  |  |  | |  | |    /  \     |  _  \  |  |  /  |          
                  \  \/   | |  | |   /    \    | | | |  |  | /  /          
                 / \  \   | |__| |  /  /\  \   | |_| |  |  |/  /          
                |  |  |   |  __  | /  /__\  \  |    /   |      \           
                |  |  |   | |  | | |   __   |  |    \   |  |\   \          
                \     /   | |  | | |  |  |  |  | |\  \  |  | \   \       
                 \___/    |_|  |_| |__|  |__|  |_| \__\ |__|  \__/        
                                                                              
                      - O R C A' S   B I G   F R I E N D -                    
                                      &                                       
                       - I N T E G R A L  F E E D E R -                       
                                                                              
 v1 FN, 2020, v2 2021                                                         
------------------------------------------------------------------------------


Reading SHARK input file orc_h2o_hf_nosmd_raman.SHARKINP.tmp ... ok
----------------------
SHARK INTEGRAL PACKAGE
----------------------

Number of atoms                             ...      3
Number of basis functions                   ...     22
Number of shells                            ...     12
Maximum angular momentum                    ...      2
Integral batch strategy                     ... SHARK/LIBINT Hybrid
RI-J (if used) integral strategy            ... SPLIT-RIJ (Revised 2003 algorithm where possible)
Printlevel                                  ...      1
Contraction scheme used                     ... SEGMENTED contraction
Coulomb Range Separation                    ... NOT USED
Exchange Range Separation                   ... NOT USED
Finite Nucleus Model                        ... NOT USED
Auxiliary Coulomb fitting basis             ... NOT available
Auxiliary J/K fitting basis                 ... NOT available
Auxiliary Correlation fitting basis         ... NOT available
Auxiliary 'external' fitting basis          ... NOT available
Integral threshold                          ...     2.500000e-11
Primitive cut-off                           ...     2.500000e-12
Primitive pair pre-selection threshold      ...     2.500000e-12

Calculating pre-screening integrals         ... done (  0.0 sec) Dimension = 12
Organizing shell pair data                  ... done (  0.0 sec)
Shell pair information
Total number of shell pairs                 ...        78
Shell pairs after pre-screening             ...        78
Total number of primitive shell pairs       ...       352
Primitive shell pairs kept                  ...       322
          la=0 lb=0:     36 shell pairs
          la=1 lb=0:     24 shell pairs
          la=1 lb=1:      6 shell pairs
          la=2 lb=0:      8 shell pairs
          la=2 lb=1:      3 shell pairs
          la=2 lb=2:      1 shell pairs

Calculating one electron integrals          ... done (  0.0 sec)
Calculating Nuclear repulsion               ... done (  0.0 sec) ENN=      5.068717319483 Eh

SHARK setup successfully completed in   0.3 seconds

Maximum memory used throughout the entire GTOINT-calculation: 7.5 MB


           ************************************************************
           *        Program running with 8 parallel MPI-processes     *
           *              working on a common directory               *
           ************************************************************

Diagonalization of the overlap matrix:
Smallest eigenvalue                        ... 5.384e-02
Time for diagonalization                   ...    0.000 sec
Threshold for overlap eigenvalues          ... 1.000e-08
Number of eigenvalues below threshold      ... 0
Time for construction of square roots      ...    0.004 sec
Total time needed                          ...    0.004 sec

--------------
SCF ITERATIONS
--------------
ITER       Energy         Delta-E        Max-DP      RMS-DP      [F,P]     Damp
               ***  Starting incremental Fock matrix formation  ***
  0    -75.6687703317   0.000000000000 0.00443645  0.00053907  0.0216913 0.7000
                      *** Initiating the SOSCF procedure ***
                      *** Re-Reading the Fockian *** 
                      *** Removing any level shift *** 
ITER      Energy       Delta-E        Grad      Rot      Max-DP    RMS-DP
  1    -75.66909969  -0.0003293598  0.002223  0.002223  0.011813  0.001552
               *** Restarting incremental Fock matrix formation ***
  2    -75.66975477  -0.0006550744  0.006906  0.009527  0.012179  0.001226
  3    -75.66975592  -0.0000011525  0.006023  0.005195  0.006444  0.000637
  4    -75.66994683  -0.0001909117  0.000712  0.001331  0.001222  0.000176
  5    -75.66995354  -0.0000067122  0.000246  0.000714  0.000833  0.000104
  6    -75.66995482  -0.0000012765  0.000048  0.000125  0.000107  0.000016
  7    -75.66995487  -0.0000000559  0.000019  0.000088  0.000115  0.000012
  8    -75.66995489  -0.0000000162  0.000010  0.000033  0.000044  0.000004
  9    -75.66995489  -0.0000000026  0.000006  0.000040  0.000044  0.000005
 10    -75.66995490  -0.0000000018  0.000003  0.000017  0.000019  0.000002
                 **** Energy Check signals convergence ****
              ***Rediagonalizing the Fockian in SOSCF/NRSCF***

               *****************************************************
               *                     SUCCESS                       *
               *           SCF CONVERGED AFTER  11 CYCLES          *
               *****************************************************

Total Energy       :          -75.66995490 Eh           -2059.08415 eV
  Last Energy change         ...   -4.9216e-10  Tolerance :   1.0000e-08
  Last MAX-Density change    ...    9.5905e-06  Tolerance :   1.0000e-07
             **** THE GBW FILE WAS UPDATED (orc_h2o_hf_nosmd_raman.gbw) ****
             **** DENSITY orc_h2o_hf_nosmd_raman.scfp WAS UPDATED ****
             **** ENERGY FILE WAS UPDATED (orc_h2o_hf_nosmd_raman.en.tmp) ****
             **** THE GBW FILE WAS UPDATED (orc_h2o_hf_nosmd_raman.gbw) ****
             **** DENSITY orc_h2o_hf_nosmd_raman.scfp WAS UPDATED ****
Total SCF time: 0 days 0 hours 0 min 0 sec 

Maximum memory used throughout the entire SCF-calculation: 224.1 MB

-------------------------   --------------------
FINAL SINGLE POINT ENERGY       -75.669954895711
-------------------------   --------------------



           ************************************************************
           *        Program running with 8 parallel MPI-processes     *
           *              working on a common directory               *
           ************************************************************
------------------------------------------------------------------------------
                         ORCA SCF GRADIENT CALCULATION
------------------------------------------------------------------------------

Gradient of the Hartree-Fock SCF energy:
Hartree-Fock type                ... RHF
Number of operators              ...    1
Number of atoms                  ...    3
Basis set dimensions             ...   22
Integral neglect threshold       ... 2.5e-11
Integral primitive cutoff        ... 2.5e-12
SHARK Integral package           ... ON

Nuc. rep. gradient       (SHARK) ... done (  0.0 sec)
HCore & Overlap gradient (SHARK) ... done (  0.0 sec)
Two-Electron gradient    (SHARK) ... done (  0.0 sec)

------------------
CARTESIAN GRADIENT
------------------

   1   O   :    0.129080776    0.000463887   -0.000000000
   2   H   :   -0.090683066    0.087898872    0.000000000
   3   H   :   -0.038397710   -0.088362759   -0.000000000

Difference to translation invariance:
           :   -0.0000000000   -0.0000000000    0.0000000000

Difference to rotation invariance:
           :    0.0000000000    0.0000000000    0.0000008757

Norm of the cartesian gradient     ...    0.2046803686
RMS gradient                       ...    0.0682267895
MAX gradient                       ...    0.1290807759

-------
TIMINGS
-------

Total SCF gradient time            ...        0.032 sec

One electron gradient       ....       0.002 sec  (  5.1%)
Two electron gradient       ....       0.005 sec  ( 16.7%)

Maximum memory used throughout the entire SCFGRAD-calculation: 12.7 MB
------------------------------------------------------------------------------
                         ORCA GEOMETRY RELAXATION STEP
------------------------------------------------------------------------------

Reading the OPT-File                    .... done
Getting information on internals        .... done
Copying old internal coords+grads       .... done
Making the new internal coordinates     .... (new redundants).... done
Validating the new internal coordinates .... (new redundants).... done
Calculating the B-matrix                .... done
Calculating the G,G- and P matrices     .... done
Transforming gradient to internals      .... done
Projecting the internal gradient        .... done
Number of atoms                         ....   3
Number of internal coordinates          ....   3
Current Energy                          ....   -75.669954896 Eh
Current gradient norm                   ....     0.204680369 Eh/bohr
Maximum allowed component of the step   ....  0.300
Current trust radius                    ....  0.300
Updating the Hessian (BFGS)             .... done
Forming the augmented Hessian           .... done
Diagonalizing the augmented Hessian     .... done
Last element of RFO vector              ....  0.658598127
Lowest eigenvalues of augmented Hessian:
 -0.182365973  0.009714641  0.121321979
Length of the computed step             ....  1.142570597
Warning: the length of the step is outside the trust region - taking restricted step instead
The input lambda is                     ....    -0.182366
   iter:   1  x=   -0.247386  g=   18.693738 f(x)=     1.215468
   iter:   2  x=   -0.334584  g=    5.938709 f(x)=     0.517842
   iter:   3  x=   -0.436601  g=    2.048070 f(x)=     0.208939
   iter:   4  x=   -0.525588  g=    0.833379 f(x)=     0.074159
   iter:   5  x=   -0.568115  g=    0.452370 f(x)=     0.019238
   iter:   6  x=   -0.574586  g=    0.351184 f(x)=     0.002273
   iter:   7  x=   -0.574708  g=    0.338523 f(x)=     0.000041
   iter:   8  x=   -0.574708  g=    0.338290 f(x)=     0.000000
   iter:   9  x=   -0.574708  g=    0.338290 f(x)=     0.000000
The output lambda is                    ....    -0.574708 (9 iterations)
The final length of the internal step   ....  0.300000000
Converting the step to cartesian space:
 Initial RMS(Int)=    0.1732050808
Transforming coordinates:
 Iter   0:  RMS(Cart)=    0.0956417759 RMS(Int)=    0.1728894212
 Iter   1:  RMS(Cart)=    0.0013500058 RMS(Int)=    0.0016209813
 Iter   2:  RMS(Cart)=    0.0000881051 RMS(Int)=    0.0001204442
 Iter   3:  RMS(Cart)=    0.0000057261 RMS(Int)=    0.0000077988
 Iter   4:  RMS(Cart)=    0.0000003721 RMS(Int)=    0.0000005070
 Iter   5:  RMS(Cart)=    0.0000000242 RMS(Int)=    0.0000000329
done
Storing new coordinates                 .... done

                                .--------------------.
          ----------------------|Geometry convergence|-------------------------
          Item                value                   Tolerance       Converged
          ---------------------------------------------------------------------
          Energy change      -0.0459988064            0.0000050000      NO
          RMS gradient        0.0921689026            0.0001000000      NO
          MAX gradient        0.1261525611            0.0003000000      NO
          RMS step            0.1732050808            0.0020000000      NO
          MAX step            0.2374767773            0.0040000000      NO
          ........................................................
          Max(Bonds)      0.1257      Max(Angles)    1.76
          Max(Dihed)        0.00      Max(Improp)    0.00
          ---------------------------------------------------------------------

The optimization has not yet converged - more geometry cycles are needed


    ---------------------------------------------------------------------------
                         Redundant Internal Coordinates
                            (Angstroem and degrees)

        Definition                    Value    dE/dq     Step     New-Value
    ----------------------------------------------------------------------------
     1. B(H   1,O   0)                1.5765  0.126153 -0.1257    1.4508   
     2. B(H   2,O   0)                1.9298  0.096223 -0.0956    1.8341   
     3. A(H   1,O   0,H   2)          105.05  0.017662   -1.76    103.29   
    ----------------------------------------------------------------------------

         *************************************************************
         *                GEOMETRY OPTIMIZATION CYCLE   4            *
         *************************************************************
---------------------------------
CARTESIAN COORDINATES (ANGSTROEM)
---------------------------------
  O      0.127478    0.084735    0.000000
  H     -0.984252    1.016894    0.000000
  H     -0.696270   -1.553996    0.000000

----------------------------
CARTESIAN COORDINATES (A.U.)
----------------------------
  NO LB      ZA    FRAG     MASS         X           Y           Z
   0 O     8.0000    0    15.999    0.240898    0.160125    0.000000
   1 H     1.0000    0     1.008   -1.859966    1.921652    0.000000
   2 H     1.0000    0     1.008   -1.315760   -2.936628    0.000000

--------------------------------
INTERNAL COORDINATES (ANGSTROEM)
--------------------------------
 O      0   0   0     0.000000000000     0.00000000     0.00000000
 H      1   0   0     1.450815327493     0.00000000     0.00000000
 H      1   2   0     1.834121177305   103.29155037     0.00000000

---------------------------
INTERNAL COORDINATES (A.U.)
---------------------------
 O      0   0   0     0.000000000000     0.00000000     0.00000000
 H      1   0   0     2.741643639857     0.00000000     0.00000000
 H      1   2   0     3.465986721531   103.29155037     0.00000000



           ************************************************************
           *        Program running with 8 parallel MPI-processes     *
           *              working on a common directory               *
           ************************************************************
------------------------------------------------------------------------------
                   ___                                                        
                  /   \      - P O W E R E D   B Y -                         
                 /     \                                                     
                 |  |  |   _    _      __       _____    __    __             
                 |  |  |  | |  | |    /  \     |  _  \  |  |  /  |          
                  \  \/   | |  | |   /    \    | | | |  |  | /  /          
                 / \  \   | |__| |  /  /\  \   | |_| |  |  |/  /          
                |  |  |   |  __  | /  /__\  \  |    /   |      \           
                |  |  |   | |  | | |   __   |  |    \   |  |\   \          
                \     /   | |  | | |  |  |  |  | |\  \  |  | \   \       
                 \___/    |_|  |_| |__|  |__|  |_| \__\ |__|  \__/        
                                                                              
                      - O R C A' S   B I G   F R I E N D -                    
                                      &                                       
                       - I N T E G R A L  F E E D E R -                       
                                                                              
 v1 FN, 2020, v2 2021                                                         
------------------------------------------------------------------------------


Reading SHARK input file orc_h2o_hf_nosmd_raman.SHARKINP.tmp ... ok
----------------------
SHARK INTEGRAL PACKAGE
----------------------

Number of atoms                             ...      3
Number of basis functions                   ...     22
Number of shells                            ...     12
Maximum angular momentum                    ...      2
Integral batch strategy                     ... SHARK/LIBINT Hybrid
RI-J (if used) integral strategy            ... SPLIT-RIJ (Revised 2003 algorithm where possible)
Printlevel                                  ...      1
Contraction scheme used                     ... SEGMENTED contraction
Coulomb Range Separation                    ... NOT USED
Exchange Range Separation                   ... NOT USED
Finite Nucleus Model                        ... NOT USED
Auxiliary Coulomb fitting basis             ... NOT available
Auxiliary J/K fitting basis                 ... NOT available
Auxiliary Correlation fitting basis         ... NOT available
Auxiliary 'external' fitting basis          ... NOT available
Integral threshold                          ...     2.500000e-11
Primitive cut-off                           ...     2.500000e-12
Primitive pair pre-selection threshold      ...     2.500000e-12

Calculating pre-screening integrals         ... done (  0.0 sec) Dimension = 12
Organizing shell pair data                  ... done (  0.0 sec)
Shell pair information
Total number of shell pairs                 ...        78
Shell pairs after pre-screening             ...        78
Total number of primitive shell pairs       ...       352
Primitive shell pairs kept                  ...       325
          la=0 lb=0:     36 shell pairs
          la=1 lb=0:     24 shell pairs
          la=1 lb=1:      6 shell pairs
          la=2 lb=0:      8 shell pairs
          la=2 lb=1:      3 shell pairs
          la=2 lb=2:      1 shell pairs

Calculating one electron integrals          ... done (  0.0 sec)
Calculating Nuclear repulsion               ... done (  0.0 sec) ENN=      5.430657499472 Eh

SHARK setup successfully completed in   1.5 seconds

Maximum memory used throughout the entire GTOINT-calculation: 7.5 MB


           ************************************************************
           *        Program running with 8 parallel MPI-processes     *
           *              working on a common directory               *
           ************************************************************

Diagonalization of the overlap matrix:
Smallest eigenvalue                        ... 4.850e-02
Time for diagonalization                   ...    0.000 sec
Threshold for overlap eigenvalues          ... 1.000e-08
Number of eigenvalues below threshold      ... 0
Time for construction of square roots      ...    0.034 sec
Total time needed                          ...    0.035 sec

--------------
SCF ITERATIONS
--------------
ITER       Energy         Delta-E        Max-DP      RMS-DP      [F,P]     Damp
               ***  Starting incremental Fock matrix formation  ***
  0    -75.7179826151   0.000000000000 0.00533134  0.00061014  0.0240230 0.7000
                      *** Initiating the SOSCF procedure ***
                      *** Re-Reading the Fockian *** 
                      *** Removing any level shift *** 
ITER      Energy       Delta-E        Grad      Rot      Max-DP    RMS-DP
  1    -75.71842161  -0.0004389983  0.002442  0.002442  0.014589  0.001748
               *** Restarting incremental Fock matrix formation ***
  2    -75.71936244  -0.0009408305  0.007542  0.008408  0.013218  0.001245
  3    -75.71942253  -0.0000600873  0.005715  0.004942  0.006722  0.000618
  4    -75.71959875  -0.0001762215  0.000758  0.001632  0.002069  0.000211
  5    -75.71960788  -0.0000091318  0.000357  0.001324  0.001354  0.000132
  6    -75.71961000  -0.0000021150  0.000128  0.000535  0.000503  0.000048
  7    -75.71961040  -0.0000003998  0.000087  0.000436  0.000515  0.000047
  8    -75.71961061  -0.0000002100  0.000040  0.000101  0.000122  0.000014
  9    -75.71961064  -0.0000000304  0.000015  0.000040  0.000050  0.000006
 10    -75.71961064  -0.0000000050  0.000004  0.000012  0.000015  0.000002
                 **** Energy Check signals convergence ****
              ***Rediagonalizing the Fockian in SOSCF/NRSCF***

               *****************************************************
               *                     SUCCESS                       *
               *           SCF CONVERGED AFTER  11 CYCLES          *
               *****************************************************

Total Energy       :          -75.71961064 Eh           -2060.43536 eV
  Last Energy change         ...   -4.0482e-10  Tolerance :   1.0000e-08
  Last MAX-Density change    ...    5.5118e-06  Tolerance :   1.0000e-07
             **** THE GBW FILE WAS UPDATED (orc_h2o_hf_nosmd_raman.gbw) ****
             **** DENSITY orc_h2o_hf_nosmd_raman.scfp WAS UPDATED ****
             **** ENERGY FILE WAS UPDATED (orc_h2o_hf_nosmd_raman.en.tmp) ****
             **** THE GBW FILE WAS UPDATED (orc_h2o_hf_nosmd_raman.gbw) ****
             **** DENSITY orc_h2o_hf_nosmd_raman.scfp WAS UPDATED ****
Total SCF time: 0 days 0 hours 0 min 0 sec 

Maximum memory used throughout the entire SCF-calculation: 224.1 MB

-------------------------   --------------------
FINAL SINGLE POINT ENERGY       -75.719610644948
-------------------------   --------------------



           ************************************************************
           *        Program running with 8 parallel MPI-processes     *
           *              working on a common directory               *
           ************************************************************
------------------------------------------------------------------------------
                         ORCA SCF GRADIENT CALCULATION
------------------------------------------------------------------------------

Gradient of the Hartree-Fock SCF energy:
Hartree-Fock type                ... RHF
Number of operators              ...    1
Number of atoms                  ...    3
Basis set dimensions             ...   22
Integral neglect threshold       ... 2.5e-11
Integral primitive cutoff        ... 2.5e-12
SHARK Integral package           ... ON

Nuc. rep. gradient       (SHARK) ... done (  0.0 sec)
HCore & Overlap gradient (SHARK) ... done (  0.0 sec)
Two-Electron gradient    (SHARK) ... done (  0.0 sec)

------------------
CARTESIAN GRADIENT
------------------

   1   O   :    0.141974732    0.004272561   -0.000000000
   2   H   :   -0.099321151    0.090993797    0.000000000
   3   H   :   -0.042653582   -0.095266358    0.000000000

Difference to translation invariance:
           :    0.0000000000   -0.0000000000    0.0000000000

Difference to rotation invariance:
           :    0.0000000000    0.0000000000    0.0000007575

Norm of the cartesian gradient     ...    0.2218437478
RMS gradient                       ...    0.0739479159
MAX gradient                       ...    0.1419747322

-------
TIMINGS
-------

Total SCF gradient time            ...        0.032 sec

One electron gradient       ....       0.002 sec  (  5.0%)
Two electron gradient       ....       0.005 sec  ( 16.7%)

Maximum memory used throughout the entire SCFGRAD-calculation: 12.7 MB
------------------------------------------------------------------------------
                         ORCA GEOMETRY RELAXATION STEP
------------------------------------------------------------------------------

Reading the OPT-File                    .... done
Getting information on internals        .... done
Copying old internal coords+grads       .... done
Making the new internal coordinates     .... (new redundants).... done
Validating the new internal coordinates .... (new redundants).... done
Calculating the B-matrix                .... done
Calculating the G,G- and P matrices     .... done
Transforming gradient to internals      .... done
Projecting the internal gradient        .... done
Number of atoms                         ....   3
Number of internal coordinates          ....   3
Current Energy                          ....   -75.719610645 Eh
Current gradient norm                   ....     0.221843748 Eh/bohr
Maximum allowed component of the step   ....  0.300
[...]

  NO   OCC          E(Eh)            E(eV) 
   0   2.0000     -20.572184      -559.7976 
   1   2.0000      -1.361004       -37.0348 
   2   2.0000      -0.732048       -19.9200 
   3   2.0000      -0.583126       -15.8677 
   4   2.0000      -0.509678       -13.8691 
   5   0.0000       0.149331         4.0635 
   6   0.0000       0.219025         5.9600 
   7   0.0000       0.252625         6.8743 
   8   0.0000       0.253961         6.9106 
   9   0.0000       0.359373         9.7790 
  10   0.0000       0.388240        10.5645 
  11   0.0000       1.247023        33.9332 
  12   0.0000       1.376448        37.4551 
  13   0.0000       1.389797        37.8183 
  14   0.0000       1.404731        38.2247 
  15   0.0000       1.409410        38.3520 
  16   0.0000       1.707206        46.4554 
  17   0.0000       2.009410        54.6788 
  18   0.0000       2.013947        54.8023 
  19   0.0000       2.053259        55.8720 
  20   0.0000       2.644593        71.9630 
  21   0.0000       3.037599        82.6573 

                    ********************************
                    * MULLIKEN POPULATION ANALYSIS *
                    ********************************

-----------------------
MULLIKEN ATOMIC CHARGES
-----------------------
   0 O :   -1.019176
   1 H :    0.509588
   2 H :    0.509588
Sum of atomic charges:   -0.0000000

--------------------------------
MULLIKEN REDUCED ORBITAL CHARGES
--------------------------------
  0 O s       :     3.961180  s :     3.961180
      pz      :     1.997763  p :     5.027950
      px      :     1.674560
      py      :     1.355628
      dz2     :     0.006078  d :     0.030046
      dxz     :     0.002181
      dyz     :     0.000056
      dx2y2   :     0.002206
      dxy     :     0.019524
  1 H s       :     0.490412  s :     0.490412
  2 H s       :     0.490412  s :     0.490412


                     *******************************
                     * LOEWDIN POPULATION ANALYSIS *
                     *******************************

----------------------
LOEWDIN ATOMIC CHARGES
----------------------
   0 O :   -0.770900
   1 H :    0.385450
   2 H :    0.385450

-------------------------------
LOEWDIN REDUCED ORBITAL CHARGES
-------------------------------
  0 O s       :     3.660555  s :     3.660555
      pz      :     1.997763  p :     5.072863
      px      :     1.688580
      py      :     1.386520
      dz2     :     0.006826  d :     0.037482
      dxz     :     0.002181
      dyz     :     0.000056
      dx2y2   :     0.003225
      dxy     :     0.025194
  1 H s       :     0.614550  s :     0.614550
  2 H s       :     0.614550  s :     0.614550


                      *****************************
                      * MAYER POPULATION ANALYSIS *
                      *****************************

  NA   - Mulliken gross atomic population
  ZA   - Total nuclear charge
  QA   - Mulliken gross atomic charge
  VA   - Mayer's total valence
  BVA  - Mayer's bonded valence
  FA   - Mayer's free valence

  ATOM       NA         ZA         QA         VA         BVA        FA
  0 O      9.0192     8.0000    -1.0192     1.3891     1.3891    -0.0000
  1 H      0.4904     1.0000     0.5096     0.6934     0.6934    -0.0000
  2 H      0.4904     1.0000     0.5096     0.6934     0.6934    -0.0000

  Mayer bond orders larger than 0.100000
B(  0-O ,  1-H ) :   0.6946 B(  0-O ,  2-H ) :   0.6946 

-------
TIMINGS
-------

Total SCF time: 0 days 0 hours 0 min 0 sec 

Total time                  ....       0.194 sec
Sum of individual times     ....       0.076 sec  ( 39.2%)

Fock matrix formation       ....       0.024 sec  ( 12.2%)
Diagonalization             ....       0.002 sec  (  1.1%)
Density matrix formation    ....       0.000 sec  (  0.0%)
Population analysis         ....       0.046 sec  ( 23.4%)
Initial guess               ....       0.002 sec  (  0.9%)
Orbital Transformation      ....       0.000 sec  (  0.0%)
Orbital Orthonormalization  ....       0.000 sec  (  0.1%)
DIIS solution               ....       0.001 sec  (  0.6%)
SOSCF solution              ....       0.002 sec  (  1.0%)

Maximum memory used throughout the entire SCF-calculation: 224.1 MB

-------------------------   --------------------
FINAL SINGLE POINT ENERGY       -76.016549340729
-------------------------   --------------------

                                *** OPTIMIZATION RUN DONE ***

                            ***************************************
                            *     ORCA property calculations      *
                            ***************************************

                                    ---------------------
                                    Active property flags
                                    ---------------------
   (+) Dipole Moment
   (+) Polarizability


------------------------------------------------------------------------------
                       ORCA ELECTRIC PROPERTIES CALCULATION
------------------------------------------------------------------------------

Dipole Moment Calculation                       ... on
Quadrupole Moment Calculation                   ... off
Polarizability Calculation                      ... Analytic (CP-SCF)
GBWName                                         ... orc_h2o_hf_nosmd_raman.gbw
Electron density                                ... orc_h2o_hf_nosmd_raman.scfp
The origin for moment calculation is the CENTER OF MASS  = (-0.391229, -0.191069  0.000000)

-------------
DIPOLE MOMENT
-------------
                                X             Y             Z
Electronic contribution:      0.04521       0.00723      -0.00000
Nuclear contribution   :     -0.93220      -0.14908       0.00000
                        -----------------------------------------
Total Dipole Moment    :     -0.88700      -0.14185      -0.00000
                        -----------------------------------------
Magnitude (a.u.)       :      0.89827
Magnitude (Debye)      :      2.28322



--------------------
Rotational spectrum 
--------------------
 
Rotational constants in cm-1:    29.278057    14.501597     9.698080 
Rotational constants in MHz : 877734.055597 434746.936379 290741.118507 

 Dipole components along the rotational axes: 
x,y,z [a.u.] :    -0.000001     0.898268    -0.000000 
x,y,z [Debye]:    -0.000002     2.283216    -0.000000 

 
Transforming and storing MO dipole integrals   ... done

                ... starting polarizability calculation

The origin for moment calculation is the CENTER OF MASS  = (-0.391229, -0.191069  0.000000)
Opening the Dipole integral file               ... (orc_h2o_hf_nosmd_raman.dmo.tmp) done
Reading Dipole-MO integrals                    ... done
Solving CP-SCF equations                       ... 

           ************************************************************
           *        Program running with 8 parallel MPI-processes     *
           *              working on a common directory               *
           ************************************************************

------------------------------------------------------------------------------
                           ORCA CP-SCF CALCULATION
------------------------------------------------------------------------------

Input orbitals are from        ... orc_h2o_hf_nosmd_raman.gbw
Input Perturbation             ... orc_h2o_hf_nosmd_raman.cpv.tmp
Wavefunction output            ... orc_h2o_hf_nosmd_raman.cpu.tmp
Perturbation mode              ... Real perturbation (singlet)
Solver                         ... POPLE
Max. number of iterations      ... 64
Convergence tolerance          ... 1.000e-04
Integral handling              ... Direct
Number of perturbations        ... 3
Number of operators            ... 1
Orbital ranges used for CP-SCF:
 Operator 0:  Orbitals   0...  4  to   5... 21
Variables per perturbation     ... 85
Memory available               ... 1022.8 MB
Memory needed per perturbation ...   0.0 MB
Perturbations treated per batch... 3
Number of batches              ... 1
     CP-SCF ITERATION   0:   3.2710e-01 (   0.0 sec   0/  3 done)
     CP-SCF ITERATION   1:   9.8822e-02 (   0.0 sec   0/  3 done)
     CP-SCF ITERATION   2:   1.9968e-02 (   0.0 sec   0/  3 done)
     CP-SCF ITERATION   3:   3.2544e-03 (   0.0 sec   0/  3 done)
     CP-SCF ITERATION   4:   4.2105e-04 (   0.0 sec   0/  3 done)
     CP-SCF ITERATION   5:   6.7111e-05 (   0.0 sec   3/  3 done)
                    *** THE CP-SCF HAS CONVERGED ***
done
Reading CP-SCF coefficients                    ... done
Doing the polarizability tensor                ... done
Cleaning up                                    ... done

-------------------------
THE POLARIZABILITY TENSOR
-------------------------

The raw cartesian tensor (atomic units):
    5.57771     -0.22781      0.00000  
   -0.22781      6.96457     -0.00000  
    0.00000     -0.00000      5.05949  
diagonalized tensor: 
    5.05949      5.54125      7.00103  

   -0.00000     -0.98743      0.15804  
   -0.00000     -0.15804     -0.98743  
    1.00000     -0.00000      0.00000  

Isotropic polarizability :   5.86726

DisplAtoms
	  0         0     
	  1         1     
	  2         2     


----------------------------------------------------------------------------
                           ORCA NUMERICAL FREQUENCIES
                              (8-process run)
----------------------------------------------------------------------------

Number of atoms                ... 3
Central differences            ... used
Number of displacements        ... 18
Numerical increment            ... 5.000e-03 bohr
IR-spectrum generation         ... on
Raman-spectrum generation      ... on
Polarizability calculation     ... 1
Surface Crossing Hessian       ... off

The output will be reduced. Please look at the following files:
SCF program output             ... >orc_h2o_hf_nosmd_raman.lastscf
Integral program output        ... >orc_h2o_hf_nosmd_raman.lastint
Gradient program output        ... >orc_h2o_hf_nosmd_raman.lastgrad
Dipole moment program output   ... >orc_h2o_hf_nosmd_raman.lastmom
AutoCI program output          ... >orc_h2o_hf_nosmd_raman.lastautoci

	<< Calculating on displaced geometry   5 (of  18) >>
	<< Calculating on displaced geometry   8 (of  18) >>
	<< Calculating on displaced geometry   6 (of  18) >>
	<< Calculating on displaced geometry   3 (of  18) >>
	<< Calculating on displaced geometry   4 (of  18) >>
	<< Calculating on displaced geometry   2 (of  18) >>
	<< Calculating on displaced geometry   7 (of  18) >>
	<< Calculating on displaced geometry   1 (of  18) >>
	<< Calculating on displaced geometry  13 (of  18) >>
	<< Calculating on displaced geometry  14 (of  18) >>
	<< Calculating on displaced geometry  10 (of  18) >>
	<< Calculating on displaced geometry   9 (of  18) >>
	<< Calculating on displaced geometry  15 (of  18) >>
	<< Calculating on displaced geometry  12 (of  18) >>
	<< Calculating on displaced geometry  11 (of  18) >>
	<< Calculating on displaced geometry  16 (of  18) >>
	<< Calculating on displaced geometry  17 (of  18) >>
	<< Calculating on displaced geometry  18 (of  18) >>

-----------------------
VIBRATIONAL FREQUENCIES
-----------------------

Scaling factor for frequencies =  1.000000000 (already applied!)

   0:         0.00 cm**-1
   1:         0.00 cm**-1
   2:         0.00 cm**-1
   3:         0.00 cm**-1
   4:         0.00 cm**-1
   5:         0.00 cm**-1
   6:      1801.01 cm**-1
   7:      4054.53 cm**-1
   8:      4173.07 cm**-1


------------
NORMAL MODES
------------

These modes are the cartesian displacements weighted by the diagonal matrix
M(i,i)=1/sqrt(m[i]) where m[i] is the mass of the displaced atom
Thus, these vectors are normalized but *not* orthogonal

                  0          1          2          3          4          5    
      0       0.000000   0.000000   0.000000   0.000000   0.000000   0.000000
      1       0.000000   0.000000   0.000000   0.000000   0.000000   0.000000
      2       0.000000   0.000000   0.000000   0.000000   0.000000   0.000000
      3       0.000000   0.000000   0.000000   0.000000   0.000000   0.000000
      4       0.000000   0.000000   0.000000   0.000000   0.000000   0.000000
      5       0.000000   0.000000   0.000000   0.000000   0.000000   0.000000
      6       0.000000   0.000000   0.000000   0.000000   0.000000   0.000000
      7       0.000000   0.000000   0.000000   0.000000   0.000000   0.000000
      8       0.000000   0.000000   0.000000   0.000000   0.000000   0.000000
                  6          7          8    
      0       0.069841  -0.049226  -0.011140
      1       0.011170  -0.007723   0.070332
      2       0.000000   0.000000   0.000000
      3      -0.486809   0.483919   0.504944
      4      -0.510408  -0.516369  -0.490269
      5       0.000000   0.000000   0.000000
      6      -0.621715   0.297393  -0.328128
      7       0.333121   0.638953  -0.626042
      8       0.000000   0.000000   0.000000


-----------
IR SPECTRUM
-----------

 Mode   freq       eps      Int      T**2         TX        TY        TZ
       cm**-1   L/(mol*cm) km/mol    a.u.
----------------------------------------------------------------------------
  6:   1801.01   0.023893  120.75  0.004140  (-0.063532 -0.010185  0.000000)
  7:   4054.53   0.004742   23.96  0.000365  ( 0.018875  0.002950 -0.000000)
  8:   4173.07   0.017311   87.48  0.001295  ( 0.005649 -0.035534 -0.000000)

* The epsilon (eps) is given for a Dirac delta lineshape.
** The dipole moment derivative (T) already includes vibrational overlap.

--------------
RAMAN SPECTRUM  
--------------

 Mode    freq (cm**-1)   Activity   Depolarization
-------------------------------------------------------------------
   6:      1801.01      2.976528      0.652153
   7:      4054.53     74.113278      0.123914
   8:      4173.07     38.656394      0.749992

The first frequency considered to be a vibration is 6
The total number of vibrations considered is 3


--------------------------
THERMOCHEMISTRY AT 298.15K
--------------------------

Temperature         ... 298.15 K
Pressure            ... 1.00 atm
Total Mass          ... 18.02 AMU

Throughout the following assumptions are being made:
  (1) The electronic state is orbitally nondegenerate
  (2) There are no thermally accessible electronically excited states
  (3) Hindered rotations indicated by low frequency modes are not
      treated as such but are treated as vibrations and this may
      cause some error
  (4) All equations used are the standard statistical mechanics
      equations for an ideal gas
  (5) All vibrations are strictly harmonic

freq.    1801.01  E(vib)   ...       0.00 
freq.    4054.53  E(vib)   ...       0.00 
freq.    4173.07  E(vib)   ...       0.00 

------------
INNER ENERGY
------------

The inner energy is: U= E(el) + E(ZPE) + E(vib) + E(rot) + E(trans)
    E(el)   - is the total energy from the electronic structure calculation
              = E(kin-el) + E(nuc-el) + E(el-el) + E(nuc-nuc)
    E(ZPE)  - the the zero temperature vibrational energy from the frequency calculation
    E(vib)  - the the finite temperature correction to E(ZPE) due to population
              of excited vibrational states
    E(rot)  - is the rotational thermal energy
    E(trans)- is the translational thermal energy

Summary of contributions to the inner energy U:
Electronic energy                ...    -76.01654934 Eh
Zero point energy                ...      0.02284684 Eh      14.34 kcal/mol
Thermal vibrational correction   ...      0.00000138 Eh       0.00 kcal/mol
Thermal rotational correction    ...      0.00141627 Eh       0.89 kcal/mol
Thermal translational correction ...      0.00141627 Eh       0.89 kcal/mol
-----------------------------------------------------------------------
Total thermal energy                    -75.99086857 Eh


Summary of corrections to the electronic energy:
(perhaps to be used in another calculation)
Total thermal correction                  0.00283392 Eh       1.78 kcal/mol
Non-thermal (ZPE) correction              0.02284684 Eh      14.34 kcal/mol
-----------------------------------------------------------------------
Total correction                          0.02568077 Eh      16.11 kcal/mol


--------
ENTHALPY
--------

The enthalpy is H = U + kB*T
                kB is Boltzmann's constant
Total free energy                 ...    -75.99086857 Eh 
Thermal Enthalpy correction       ...      0.00094421 Eh       0.59 kcal/mol
-----------------------------------------------------------------------
Total Enthalpy                    ...    -75.98992436 Eh


Note: Rotational entropy computed according to Herzberg 
Infrared and Raman Spectra, Chapter V,1, Van Nostrand Reinhold, 1945 
Point Group:  C2v, Symmetry Number:   2  
Rotational constants in cm-1:    29.278057    14.501597     9.698080 

Vibrational entropy computed according to the QRRHO of S. Grimme
Chem.Eur.J. 2012 18 9955


-------
ENTROPY
-------

The entropy contributions are T*S = T*(S(el)+S(vib)+S(rot)+S(trans))
     S(el)   - electronic entropy
     S(vib)  - vibrational entropy
     S(rot)  - rotational entropy
     S(trans)- translational entropy
The entropies will be listed as multiplied by the temperature to get
units of energy

Electronic entropy                ...      0.00000000 Eh      0.00 kcal/mol
Vibrational entropy               ...      0.00000154 Eh      0.00 kcal/mol
Rotational entropy                ...      0.00492713 Eh      3.09 kcal/mol
Translational entropy             ...      0.01644380 Eh     10.32 kcal/mol
-----------------------------------------------------------------------
Final entropy term                ...      0.02137247 Eh     13.41 kcal/mol

In case the symmetry of your molecule has not been determined correctly
or in case you have a reason to use a different symmetry number we print 
out the resulting rotational entropy values for sn=1,12 :
 --------------------------------------------------------
|  sn= 1 | S(rot)=       0.00558159 Eh      3.50 kcal/mol|
|  sn= 2 | S(rot)=       0.00492713 Eh      3.09 kcal/mol|
|  sn= 3 | S(rot)=       0.00454430 Eh      2.85 kcal/mol|
|  sn= 4 | S(rot)=       0.00427268 Eh      2.68 kcal/mol|
|  sn= 5 | S(rot)=       0.00406199 Eh      2.55 kcal/mol|
|  sn= 6 | S(rot)=       0.00388984 Eh      2.44 kcal/mol|
|  sn= 7 | S(rot)=       0.00374430 Eh      2.35 kcal/mol|
|  sn= 8 | S(rot)=       0.00361822 Eh      2.27 kcal/mol|
|  sn= 9 | S(rot)=       0.00350701 Eh      2.20 kcal/mol|
|  sn=10 | S(rot)=       0.00340753 Eh      2.14 kcal/mol|
|  sn=11 | S(rot)=       0.00331754 Eh      2.08 kcal/mol|
|  sn=12 | S(rot)=       0.00323539 Eh      2.03 kcal/mol|
 --------------------------------------------------------


-------------------
GIBBS FREE ENERGY
-------------------

The Gibbs free energy is G = H - T*S

Total enthalpy                    ...    -75.98992436 Eh 
Total entropy correction          ...     -0.02137247 Eh    -13.41 kcal/mol
-----------------------------------------------------------------------
Final Gibbs free energy         ...    -76.01129684 Eh

For completeness - the Gibbs free energy minus the electronic energy
G-E(el)                           ...      0.00525250 Eh      3.30 kcal/mol



Timings for individual modules:

Sum of individual times         ...       80.513 sec (=   1.342 min)
GTO integral calculation        ...       27.834 sec (=   0.464 min)  34.6 %
SCF iterations                  ...       21.161 sec (=   0.353 min)  26.3 %
Solution of CP-SCF eqns.        ...        1.044 sec (=   0.017 min)   1.3 %
SCF Gradient evaluation         ...       15.562 sec (=   0.259 min)  19.3 %
Geometry relaxation             ...        0.243 sec (=   0.004 min)   0.3 %
Numerical frequency calculation ...       14.670 sec (=   0.244 min)  18.2 %
                             ****ORCA TERMINATED NORMALLY****
TOTAL RUN TIME: 0 days 0 hours 1 minutes 37 seconds 957 msec
