
    -----------------------------------------------------------------------
          Psi4: An Open-Source Ab Initio Electronic Structure Package
                               Psi4 1.9.1 release

                         Git: Rev {} zzzzzzz 


    D. G. A. Smith, L. A. Burns, A. C. Simmonett, R. M. Parrish,
    M. C. Schieber, R. Galvelis, P. Kraus, H. Kruse, R. Di Remigio,
    A. Alenaizan, A. M. James, S. Lehtola, J. P. Misiewicz, M. Scheurer,
    R. A. Shaw, J. B. Schriber, Y. Xie, Z. L. Glick, D. A. Sirianni,
    J. S. O'Brien, J. M. Waldrop, A. Kumar, E. G. Hohenstein,
    B. P. Pritchard, B. R. Brooks, H. F. Schaefer III, A. Yu. Sokolov,
    K. Patkowski, A. E. DePrince III, U. Bozkaya, R. A. King,
    F. A. Evangelista, J. M. Turney, T. D. Crawford, C. D. Sherrill,
    J. Chem. Phys. 152(18) 184108 (2020). https://doi.org/10.1063/5.0006002

                            Additional Code Authors
    E. T. Seidl, C. L. Janssen, E. F. Valeev, M. L. Leininger,
    J. F. Gonthier, R. M. Richard, H. R. McAlexander, M. Saitow, X. Wang,
    P. Verma, M. H. Lechner, A. Jiang, S. Behnle, A. G. Heide,
    M. F. Herbst, and D. L. Poole

             Previous Authors, Complete List of Code Contributors,
                       and Citations for Specific Modules
    https://github.com/psi4/psi4/blob/master/codemeta.json
    https://github.com/psi4/psi4/graphs/contributors
    http://psicode.org/psi4manual/master/introduction.html#citing-psifour

    -----------------------------------------------------------------------


    Psi4 started on: Monday, 13 May 2024 02:07PM

    Process ID: 3843167
    Host:       cn0570
    PSIDATADIR: /panfs/jay/groups/28/lever046/lever046/psi4conda/share/psi4
    Memory:     500.0 MiB
    Threads:    16
    
  ==> Input File <==

--------------------------------------------------------------------------
# Any line starting with the # character is a comment line
#! B3LYP/6-31+G* H2O computation

memory 600mb

molecule h2o {
   0 1
   O       2.2186344E-01  6.4623884E-02  0.0000000E+00                      
   H      -1.0869454E+00  1.3371949E+00  0.0000000E+00                      
   H      -6.8796211E-01 -1.8541860E+00  0.0000000E+00
}

set basis 6-31+G*
optimize('b3lyp')
freq('b3lyp')
--------------------------------------------------------------------------

  Memory set to 572.205 MiB by Python driver.

Scratch directory: /scratch.global/lever046/psi4/
gradient() will perform analytic gradient computation.
   => Libint2 <=

    Primary   basis highest AM E, G, H:  5, 4, 3
    Auxiliary basis highest AM E, G, H:  6, 5, 4
    Onebody   basis highest AM E, G, H:  6, 5, 4
    Solid Harmonics ordering:            Gaussian

*** tstart() called on cn0570
*** at Mon May 13 14:07:45 2024

   => Loading Basis Set <=

    Name: 6-31+G*
    Role: ORBITAL
    Keyword: BASIS
    atoms 1   entry O          line   157 file /panfs/jay/groups/28/lever046/lever046/psi4conda/share/psi4/basis/6-31pgs.gbs 
    atoms 2-3 entry H          line    46 file /panfs/jay/groups/28/lever046/lever046/psi4conda/share/psi4/basis/6-31pgs.gbs 


         ---------------------------------------------------------
                                   SCF
               by Justin Turney, Rob Parrish, Andy Simmonett
                          and Daniel G. A. Smith
                              RKS Reference
                       16 Threads,    572 MiB Core
         ---------------------------------------------------------

  ==> Geometry <==

    Molecular point group: cs
    Full point group: Cs

    Geometry (in Angstrom), charge = 0, multiplicity = 1:

       Center              X                  Y                   Z               Mass       
    ------------   -----------------  -----------------  -----------------  -----------------
         O            0.124149093315     0.036161870513     0.000000000000    15.994914619570
         H           -1.184659746685     1.308732886513     0.000000000000     1.007825032230
         H           -0.785676456685    -1.882648013487     0.000000000000     1.007825032230

  Running in cs symmetry.

  Rotational constants: A =      7.38383  B =      3.16920  C =      2.21745 [cm^-1]
  Rotational constants: A = 221361.54641  B =  95010.36145  C =  66477.58544 [MHz]
  Nuclear repulsion =    4.477114475495696

  Charge       = 0
  Multiplicity = 1
  Electrons    = 10
  Nalpha       = 5
  Nbeta        = 5

  ==> Algorithm <==

  SCF Algorithm Type is DF.
  DIIS enabled.
  MOM disabled.
  Fractional occupation disabled.
  Guess Type is SAD.
  Energy threshold   = 1.00e-08
  Density threshold  = 1.00e-08
  Integral threshold = 1.00e-12

  ==> Primary Basis <==

  Basis Set: 6-31+G*
    Blend: 6-31+G*
    Number of shells: 12
    Number of basis functions: 23
    Number of Cartesian functions: 23
    Spherical Harmonics?: false
    Max angular momentum: 2

  ==> DFT Potential <==

   => LibXC <=

    Version 6.2.2
    S. Lehtola, C. Steigemann, M. J.T. Oliveira, and M. A.L. Marques.,  SoftwareX 7, 1–5 (2018) (10.1016/j.softx.2017.11.002)

   => Composite Functional: B3LYP <= 

    B3LYP Hyb-GGA Exchange-Correlation Functional

    P. J. Stephens, F. J. Devlin, C. F. Chabalowski, and M. J. Frisch.,  J. Phys. Chem. 98, 11623 (1994) (10.1021/j100096a001)

    Deriv               =              1
    GGA                 =           TRUE
    Meta                =          FALSE

    Exchange Hybrid     =           TRUE
    MP2 Hybrid          =          FALSE

   => Exchange Functionals <=

    0.0800   Slater exchange
    0.7200         Becke 88

   => Exact (HF) Exchange <=

    0.2000               HF 

   => Correlation Functionals <=

    0.1900   Vosko, Wilk & Nusair (VWN5_RPA)
    0.8100   Lee, Yang & Parr

   => LibXC Density Thresholds  <==

    XC_HYB_GGA_XC_B3LYP:  1.00E-15 

   => Molecular Quadrature <=

    Radial Scheme          =       TREUTLER
    Pruning Scheme         =           NONE
    Nuclear Scheme         =       TREUTLER

    Blocking Scheme        =         OCTREE
    BS radius alpha        =              1
    Pruning alpha          =              1
    Radial Points          =             75
    Spherical Points       =            302
    Total Points           =          66856
    Total Blocks           =            560
    Max Points             =            255
    Max Functions          =             23
    Weights Tolerance      =       1.00E-15

   => Loading Basis Set <=

    Name: (6-31+G* AUX)
    Role: JKFIT
    Keyword: DF_BASIS_SCF
    atoms 1   entry O          line   310 file /panfs/jay/groups/28/lever046/lever046/psi4conda/share/psi4/basis/heavy-aug-cc-pvdz-jkfit.gbs 
    atoms 2-3 entry H          line   116 file /panfs/jay/groups/28/lever046/lever046/psi4conda/share/psi4/basis/heavy-aug-cc-pvdz-jkfit.gbs 

  ==> Integral Setup <==

  DFHelper Memory: AOs need 0.001 GiB; user supplied 0.376 GiB. 
  Using in-core AOs.

  ==> MemDFJK: Density-Fitted J/K Matrices <==

    J tasked:                   Yes
    K tasked:                   Yes
    wK tasked:                   No
    OpenMP threads:              16
    Memory [MiB]:               385
    Algorithm:                 Core
    Schwarz Cutoff:           1E-12
    Mask sparsity (%):       0.0000
    Fitting Condition:        1E-10

   => Auxiliary Basis Set <=

  Basis Set: (6-31+G* AUX)
    Blend: HEAVY-AUG-CC-PVDZ-JKFIT
    Number of shells: 46
    Number of basis functions: 151
    Number of Cartesian functions: 151
    Spherical Harmonics?: false
    Max angular momentum: 3

  Cached 100.0% of DFT collocation blocks in 0.043 [GiB].

  Minimum eigenvalue in the overlap matrix is 2.1683340939E-02.
  Reciprocal condition number of the overlap matrix is 5.4336273063E-03.
    Using symmetric orthogonalization.

  ==> Pre-Iterations <==

  SCF Guess: Superposition of Atomic Densities via on-the-fly atomic UHF (no occupation information).

   -------------------------
    Irrep   Nso     Nmo    
   -------------------------
     A'        18      18 
     A"         5       5 
   -------------------------
    Total      23      23
   -------------------------

  ==> Iterations <==

                           Total Energy        Delta E     RMS |[F,P]|

   @DF-RKS iter SAD:   -75.55770248714914   -7.55577e+01   0.00000e+00 
   @DF-RKS iter   1:   -75.44635934223496    1.11343e-01   5.42014e-02 DIIS/ADIIS
   @DF-RKS iter   2:   -71.64449905576684    3.80186e+00   1.06138e-01 ADIIS
   @DF-RKS iter   3:   -75.19178465354561   -3.54729e+00   6.19457e-02 DIIS/ADIIS
   @DF-RKS iter   4:   -76.06522928120516   -8.73445e-01   1.01415e-02 DIIS/ADIIS
   @DF-RKS iter   5:   -76.02476752479733    4.04618e-02   1.58806e-02 DIIS/ADIIS
   @DF-RKS iter   6:   -76.07464191338077   -4.98744e-02   5.35346e-03 DIIS/ADIIS
   @DF-RKS iter   7:   -76.08068594799776   -6.04403e-03   1.74029e-03 DIIS/ADIIS
   @DF-RKS iter   8:   -76.08122060681893   -5.34659e-04   1.52112e-04 DIIS/ADIIS
   @DF-RKS iter   9:   -76.08122677744025   -6.17062e-06   2.78349e-05 DIIS
   @DF-RKS iter  10:   -76.08122693699242   -1.59552e-07   2.49112e-06 DIIS
   @DF-RKS iter  11:   -76.08122693610683    8.85592e-10   5.30583e-06 DIIS
   @DF-RKS iter  12:   -76.08122694174382   -5.63699e-09   2.82202e-07 DIIS
   @DF-RKS iter  13:   -76.08122694175788   -1.40545e-11   1.24787e-07 DIIS
   @DF-RKS iter  14:   -76.08122694176073   -2.85638e-12   1.50788e-09 DIIS
  Energy and wave function converged.


  ==> Post-Iterations <==

   Electrons on quadrature grid:
      Ntotal   =    9.9999974962 ; deviation = -2.504e-06 

    Orbital Energies [Eh]
    ---------------------

    Doubly Occupied:                                                      

       1Ap   -19.241255     2Ap    -0.890639     3Ap    -0.354952  
       4Ap    -0.327456     1App   -0.302741  

    Virtual:                                                              

       5Ap    -0.194654     6Ap    -0.148813     7Ap     0.144456  
       2App    0.162621     8Ap     0.201833     9Ap     0.203124  
      10Ap     0.774478    11Ap     0.797530    12Ap     1.116338  
       3App    1.130608    13Ap     1.148511    14Ap     1.221449  
      15Ap     1.790161     4App    1.805069     5App    1.808995  
      16Ap     1.818998    17Ap     1.834838    18Ap     3.660797  

    Final Occupation by Irrep:
             Ap   App 
    DOCC [     4,    1 ]
    NA   [     4,    1 ]
    NB   [     4,    1 ]

  @DF-RKS Final Energy:   -76.08122694176073

   => Energetics <=

    Nuclear Repulsion Energy =              4.4771144754956964
    One-Electron Energy =                -113.7018081044596016
    Two-Electron Energy =                  40.3396524425722589
    DFT Exchange-Correlation Energy =      -7.1961857553690916
    Empirical Dispersion Energy =           0.0000000000000000
    VV10 Nonlocal Energy =                  0.0000000000000000
    Total Energy =                        -76.0812269417607325

Computation Completed


Properties will be evaluated at   0.000000,   0.000000,   0.000000 [a0]

Properties computed using the SCF density matrix


 Multipole Moments:

 ------------------------------------------------------------------------------------
     Multipole            Electronic (a.u.)      Nuclear  (a.u.)        Total (a.u.)
 ------------------------------------------------------------------------------------

 L = 1.  Multiply by 2.5417464519 to convert [e a0] to [Debye]
 Dipole X            :          1.0266855           -1.8465335           -0.8198480
 Dipole Y            :          0.3687655           -0.5378542           -0.1690886
 Dipole Z            :          0.0000000            0.0000000            0.0000000
 Magnitude           :                                                    0.8371031

 ------------------------------------------------------------------------------------

*** tstop() called on cn0570 at Mon May 13 14:07:50 2024
Module time:
	user time   =      18.18 seconds =       0.30 minutes
	system time =       2.17 seconds =       0.04 minutes
	total time  =          5 seconds =       0.08 minutes
Total time:
	user time   =      18.18 seconds =       0.30 minutes
	system time =       2.17 seconds =       0.04 minutes
	total time  =          5 seconds =       0.08 minutes

*** tstart() called on cn0570
*** at Mon May 13 14:07:50 2024


         ------------------------------------------------------------
                                   SCF GRAD                          
                          Rob Parrish, Justin Turney,                
                       Andy Simmonett, and Alex Sokolov              
         ------------------------------------------------------------

  ==> Geometry <==

    Molecular point group: cs
    Full point group: Cs

    Geometry (in Angstrom), charge = 0, multiplicity = 1:

       Center              X                  Y                   Z               Mass       
    ------------   -----------------  -----------------  -----------------  -----------------
         O            0.124149093315     0.036161870513     0.000000000000    15.994914619570
         H           -1.184659746685     1.308732886513     0.000000000000     1.007825032230
         H           -0.785676456685    -1.882648013487     0.000000000000     1.007825032230

  Nuclear repulsion =    4.477114475495696

  ==> Basis Set <==

  Basis Set: 6-31+G*
    Blend: 6-31+G*
    Number of shells: 12
    Number of basis functions: 23
    Number of Cartesian functions: 23
    Spherical Harmonics?: false
    Max angular momentum: 2

  ==> DFJKGrad: Density-Fitted SCF Gradients <==

    Gradient:                    1
    J tasked:                  Yes
    K tasked:                  Yes
    wK tasked:                  No
    OpenMP threads:             16
    Integrals threads:          16
    Memory [MiB]:              429
    Schwarz Cutoff:          1E-12
    Fitting Condition:       1E-10

   => Auxiliary Basis Set <=

  Basis Set: (6-31+G* AUX)
    Blend: HEAVY-AUG-CC-PVDZ-JKFIT
    Number of shells: 46
    Number of basis functions: 151
    Number of Cartesian functions: 151
    Spherical Harmonics?: false
    Max angular momentum: 3

  ==> DFT Potential <==

   => LibXC <=

    Version 6.2.2
    S. Lehtola, C. Steigemann, M. J.T. Oliveira, and M. A.L. Marques.,  SoftwareX 7, 1–5 (2018) (10.1016/j.softx.2017.11.002)

   => Composite Functional: B3LYP <= 

    B3LYP Hyb-GGA Exchange-Correlation Functional

    P. J. Stephens, F. J. Devlin, C. F. Chabalowski, and M. J. Frisch.,  J. Phys. Chem. 98, 11623 (1994) (10.1021/j100096a001)

    Deriv               =              1
    GGA                 =           TRUE
    Meta                =          FALSE

    Exchange Hybrid     =           TRUE
    MP2 Hybrid          =          FALSE

   => Exchange Functionals <=

    0.0800   Slater exchange
    0.7200         Becke 88

   => Exact (HF) Exchange <=

    0.2000               HF 

   => Correlation Functionals <=

    0.1900   Vosko, Wilk & Nusair (VWN5_RPA)
    0.8100   Lee, Yang & Parr

   => LibXC Density Thresholds  <==

    XC_HYB_GGA_XC_B3LYP:  1.00E-15 

   => Molecular Quadrature <=

    Radial Scheme          =       TREUTLER
    Pruning Scheme         =           NONE
    Nuclear Scheme         =       TREUTLER

    Blocking Scheme        =         OCTREE
    BS radius alpha        =              1
    Pruning alpha          =              1
    Radial Points          =             75
    Spherical Points       =            302
    Total Points           =          66856
    Total Blocks           =            560
    Max Points             =            255
    Max Functions          =             23
    Weights Tolerance      =       1.00E-15


  -Total Gradient:
     Atom            X                  Y                   Z
    ------   -----------------  -----------------  -----------------
       1        0.077283163637    -0.004612284320     0.000000000000
       2       -0.055358996597     0.060596122524     0.000000000000
       3       -0.021926479471    -0.055981165582     0.000000000000


*** tstop() called on cn0570 at Mon May 13 14:07:51 2024
Module time:
	user time   =       3.26 seconds =       0.05 minutes
	system time =       0.63 seconds =       0.01 minutes
	total time  =          1 seconds =       0.02 minutes
Total time:
	user time   =      21.47 seconds =       0.36 minutes
	system time =       2.80 seconds =       0.05 minutes
	total time  =          6 seconds =       0.10 minutes

    			-----------------------------------------

    			 OPTKING 3.0: for geometry optimizations 

    			     By R.A. King, Bethel University     

    			        with contributions from          

    			    A.V. Copan, J. Cayton, A. Heide      

    			-----------------------------------------

    
	                            ===> Fragment 1 <== 

	 Z (Atomic Numbers)          Masses                          Geom                  
	       8.000000            15.994915          0.23460779  0.06833603  0.00000000   
	       1.000000             1.007825         -2.23868247  2.47314673  0.00000000   
	       1.000000             1.007825         -1.48471333 -3.55768914  0.00000000   

	 - Coordinate -           - BOHR/RAD -       - ANG/DEG -
	 R(1,2)           =         3.449678           1.825491
	 R(1,3)           =         4.012994           2.123585
	 B(2,1,3)         =         1.899393         108.827224


	        --- Internal Coordinate Step in ANG or DEG, aJ/ANG or AJ/DEG ---
	-------------------------------------------------------------------------------
	           Coordinate      Previous         Force          Change          New 
	           ----------      --------        ------          ------        ------
	               R(1,2)       1.82549       -0.67501       -0.20338       1.62211
	               R(1,3)       2.12359       -0.49414       -0.16689       1.95670
	             B(2,1,3)     108.82722       -0.00127       -3.04741     105.77982
	-------------------------------------------------------------------------------

	                                 ==> Convergence Check <==                                  
    
	Measures of convergence in internal coordinates in au.
    
	Criteria marked as inactive (o), active & met (*), and active & unmet ( ).

	----------------------------------------------------------------------------------------------
	   Step    Total Energy     Delta E     Max Force     RMS Force      Max Disp      RMS Disp   
	----------------------------------------------------------------------------------------------
	  Convergence Criteria     1.00e-06 *    3.00e-04 *             o    1.20e-03 *             o
	----------------------------------------------------------------------------------------------
	     1     -76.08122694   -7.61e+01      8.19e-02      5.94e-02 o    3.84e-01      2.89e-01 o  ~
	----------------------------------------------------------------------------------------------

Next Geometry in Ang 
	Fragment 1 (Ang)

	    O   0.0746903212   0.0437728748   0.0000000000
	    H  -1.1303094613   1.1296892178   0.0000000000
	    H  -0.7905679700  -1.7112153491   0.0000000000


    Structure for next step:
    Molecular point group: cs
    Full point group: Cs

    Geometry (in Angstrom), charge = 0, multiplicity = 1:

    O            0.115846335001     0.037439547385     0.000000000000
    H           -1.089153447506     1.123355890393     0.000000000000
    H           -0.749411956278    -1.717548676513     0.000000000000


Scratch directory: /scratch.global/lever046/psi4/
gradient() will perform analytic gradient computation.
   => Libint2 <=

    Primary   basis highest AM E, G, H:  5, 4, 3
    Auxiliary basis highest AM E, G, H:  6, 5, 4
    Onebody   basis highest AM E, G, H:  6, 5, 4
    Solid Harmonics ordering:            Gaussian

*** tstart() called on cn0570
*** at Mon May 13 14:07:51 2024

   => Loading Basis Set <=

    Name: 6-31+G*
    Role: ORBITAL
    Keyword: BASIS
    atoms 1   entry O          line   157 file /panfs/jay/groups/28/lever046/lever046/psi4conda/share/psi4/basis/6-31pgs.gbs 
    atoms 2-3 entry H          line    46 file /panfs/jay/groups/28/lever046/lever046/psi4conda/share/psi4/basis/6-31pgs.gbs 


         ---------------------------------------------------------
                                   SCF
               by Justin Turney, Rob Parrish, Andy Simmonett
                          and Daniel G. A. Smith
                              RKS Reference
                       16 Threads,    572 MiB Core
         ---------------------------------------------------------

  ==> Geometry <==

    Molecular point group: cs
    Full point group: Cs

    Geometry (in Angstrom), charge = 0, multiplicity = 1:

       Center              X                  Y                   Z               Mass       
    ------------   -----------------  -----------------  -----------------  -----------------
         O            0.115846335001     0.037439547385     0.000000000000    15.994914619570
         H           -1.089153447506     1.123355890393     0.000000000000     1.007825032230
         H           -0.749411956278    -1.717548676513     0.000000000000     1.007825032230

  Running in cs symmetry.

  Rotational constants: A =      8.56389  B =      3.94327  C =      2.70003 [cm^-1]
  Rotational constants: A = 256739.08154  B = 118216.33811  C =  80944.96700 [MHz]
  Nuclear repulsion =    4.958330571150721

  Charge       = 0
  Multiplicity = 1
  Electrons    = 10
  Nalpha       = 5
  Nbeta        = 5

  ==> Algorithm <==

  SCF Algorithm Type is DF.
  DIIS enabled.
  MOM disabled.
  Fractional occupation disabled.
  Guess Type is READ.
  Energy threshold   = 1.00e-08
  Density threshold  = 1.00e-08
  Integral threshold = 1.00e-12

  ==> Primary Basis <==

  Basis Set: 6-31+G*
    Blend: 6-31+G*
    Number of shells: 12
    Number of basis functions: 23
    Number of Cartesian functions: 23
    Spherical Harmonics?: false
    Max angular momentum: 2

  ==> DFT Potential <==

   => LibXC <=

    Version 6.2.2
    S. Lehtola, C. Steigemann, M. J.T. Oliveira, and M. A.L. Marques.,  SoftwareX 7, 1–5 (2018) (10.1016/j.softx.2017.11.002)

   => Composite Functional: B3LYP <= 

    B3LYP Hyb-GGA Exchange-Correlation Functional

    P. J. Stephens, F. J. Devlin, C. F. Chabalowski, and M. J. Frisch.,  J. Phys. Chem. 98, 11623 (1994) (10.1021/j100096a001)

    Deriv               =              1
    GGA                 =           TRUE
    Meta                =          FALSE

    Exchange Hybrid     =           TRUE
    MP2 Hybrid          =          FALSE

   => Exchange Functionals <=

    0.0800   Slater exchange
    0.7200         Becke 88

   => Exact (HF) Exchange <=

    0.2000               HF 

   => Correlation Functionals <=

    0.1900   Vosko, Wilk & Nusair (VWN5_RPA)
    0.8100   Lee, Yang & Parr

   => LibXC Density Thresholds  <==

    XC_HYB_GGA_XC_B3LYP:  1.00E-15 

   => Molecular Quadrature <=

    Radial Scheme          =       TREUTLER
    Pruning Scheme         =           NONE
    Nuclear Scheme         =       TREUTLER

    Blocking Scheme        =         OCTREE
    BS radius alpha        =              1
    Pruning alpha          =              1
    Radial Points          =             75
    Spherical Points       =            302
    Total Points           =          66825
    Total Blocks           =            561
    Max Points             =            255
    Max Functions          =             23
    Weights Tolerance      =       1.00E-15

   => Loading Basis Set <=

    Name: (6-31+G* AUX)
    Role: JKFIT
    Keyword: DF_BASIS_SCF
    atoms 1   entry O          line   310 file /panfs/jay/groups/28/lever046/lever046/psi4conda/share/psi4/basis/heavy-aug-cc-pvdz-jkfit.gbs 
    atoms 2-3 entry H          line   116 file /panfs/jay/groups/28/lever046/lever046/psi4conda/share/psi4/basis/heavy-aug-cc-pvdz-jkfit.gbs 

   => Loading Basis Set <=

    Name: 6-31+G*
    Role: ORBITAL
    Keyword: BASIS
    atoms 1   entry O          line   157 file /panfs/jay/groups/28/lever046/lever046/psi4conda/share/psi4/basis/6-31pgs.gbs 
    atoms 2-3 entry H          line    46 file /panfs/jay/groups/28/lever046/lever046/psi4conda/share/psi4/basis/6-31pgs.gbs 

  Reading orbitals from file /scratch.global/lever046/psi4/ps4_h2o_b3lyp_nosmd_opt.h2o.3843167.180.npy, no projection.

  ==> Integral Setup <==

  DFHelper Memory: AOs need 0.001 GiB; user supplied 0.376 GiB. 
  Using in-core AOs.

  ==> MemDFJK: Density-Fitted J/K Matrices <==

    J tasked:                   Yes
    K tasked:                   Yes
    wK tasked:                   No
    OpenMP threads:              16
    Memory [MiB]:               384
    Algorithm:                 Core
    Schwarz Cutoff:           1E-12
    Mask sparsity (%):       0.0000
    Fitting Condition:        1E-10

   => Auxiliary Basis Set <=

  Basis Set: (6-31+G* AUX)
    Blend: HEAVY-AUG-CC-PVDZ-JKFIT
    Number of shells: 46
    Number of basis functions: 151
    Number of Cartesian functions: 151
    Spherical Harmonics?: false
    Max angular momentum: 3

  Cached 100.0% of DFT collocation blocks in 0.043 [GiB].

  Minimum eigenvalue in the overlap matrix is 2.1409123546E-02.
  Reciprocal condition number of the overlap matrix is 5.1935878621E-03.
    Using symmetric orthogonalization.

  ==> Pre-Iterations <==

  SCF Guess: Orbitals guess was supplied from a previous computation.

   -------------------------------------------------------
    Irrep   Nso     Nmo     Nalpha   Nbeta   Ndocc  Nsocc
   -------------------------------------------------------
     A'        18      18       4       4       4       0
     A"         5       5       1       1       1       0
   -------------------------------------------------------
    Total      23      23       5       5       5       0
   -------------------------------------------------------

  ==> Iterations <==

                           Total Energy        Delta E     RMS |[F,P]|

   @DF-RKS iter   0:   -76.19011835297785   -7.61901e+01   5.94105e-03 
   @DF-RKS iter   1:   -76.13631715466302    5.38012e-02   2.46904e-03 DIIS/ADIIS
   @DF-RKS iter   2:   -76.13353040854479    2.78675e-03   4.69619e-03 DIIS/ADIIS
   @DF-RKS iter   3:   -76.13444268968198   -9.12281e-04   4.15569e-03 DIIS/ADIIS
   @DF-RKS iter   4:   -76.13743658542296   -2.99390e-03   2.04976e-04 DIIS/ADIIS
   @DF-RKS iter   5:   -76.13744858704528   -1.20016e-05   1.15112e-04 DIIS/ADIIS
   @DF-RKS iter   6:   -76.13745141166186   -2.82462e-06   2.59238e-06 DIIS
   @DF-RKS iter   7:   -76.13745141401370   -2.35184e-09   1.30879e-06 DIIS
   @DF-RKS iter   8:   -76.13745141439180   -3.78108e-10   9.38710e-08 DIIS
   @DF-RKS iter   9:   -76.13745141439679   -4.98801e-12   3.65912e-08 DIIS
   @DF-RKS iter  10:   -76.13745141439701   -2.13163e-13   6.72367e-09 DIIS
  Energy and wave function converged.


  ==> Post-Iterations <==

   Electrons on quadrature grid:
      Ntotal   =    9.9999991457 ; deviation = -8.543e-07 

    Orbital Energies [Eh]
    ---------------------

    Doubly Occupied:                                                      

       1Ap   -19.237655     2Ap    -0.895147     3Ap    -0.373658  
       4Ap    -0.338088     1App   -0.302905  

    Virtual:                                                              

       5Ap    -0.175733     6Ap    -0.110654     7Ap     0.147710  
       2App    0.160034     8Ap     0.193055     9Ap     0.206421  
      10Ap     0.745530    11Ap     0.794102    12Ap     1.125198  
       3App    1.128482    13Ap     1.180512    14Ap     1.264329  
      15Ap     1.785655     4App    1.801528     5App    1.807631  
      16Ap     1.826202    17Ap     1.846071    18Ap     3.666005  

    Final Occupation by Irrep:
             Ap   App 
    DOCC [     4,    1 ]
    NA   [     4,    1 ]
    NB   [     4,    1 ]

  @DF-RKS Final Energy:   -76.13745141439701

   => Energetics <=

    Nuclear Repulsion Energy =              4.9583305711507206
    One-Electron Energy =                -114.6989353160215614
    Two-Electron Energy =                  40.8248208452967205
    DFT Exchange-Correlation Energy =      -7.2216675148228866
    Empirical Dispersion Energy =           0.0000000000000000
    VV10 Nonlocal Energy =                  0.0000000000000000
    Total Energy =                        -76.1374514143969918

Computation Completed


Properties will be evaluated at   0.000000,   0.000000,   0.000000 [a0]

Properties computed using the SCF density matrix


 Multipole Moments:

 ------------------------------------------------------------------------------------
     Multipole            Electronic (a.u.)      Nuclear  (a.u.)        Total (a.u.)
 ------------------------------------------------------------------------------------

 L = 1.  Multiply by 2.5417464519 to convert [e a0] to [Debye]
 Dipole X            :          0.8808847           -1.7230423           -0.8421576
 Dipole Y            :          0.3798791           -0.5568577           -0.1769786
 Dipole Z            :          0.0000000            0.0000000            0.0000000
 Magnitude           :                                                    0.8605526

 ------------------------------------------------------------------------------------

*** tstop() called on cn0570 at Mon May 13 14:07:51 2024
Module time:
	user time   =       6.62 seconds =       0.11 minutes
	system time =       0.56 seconds =       0.01 minutes
	total time  =          0 seconds =       0.00 minutes
Total time:
	user time   =      29.06 seconds =       0.48 minutes
	system time =       3.45 seconds =       0.06 minutes
	total time  =          6 seconds =       0.10 minutes

*** tstart() called on cn0570
*** at Mon May 13 14:07:51 2024


         ------------------------------------------------------------
                                   SCF GRAD                          
                          Rob Parrish, Justin Turney,                
                       Andy Simmonett, and Alex Sokolov              
         ------------------------------------------------------------

  ==> Geometry <==

    Molecular point group: cs
    Full point group: Cs

    Geometry (in Angstrom), charge = 0, multiplicity = 1:

       Center              X                  Y                   Z               Mass       
    ------------   -----------------  -----------------  -----------------  -----------------
         O            0.115846335001     0.037439547385     0.000000000000    15.994914619570
         H           -1.089153447506     1.123355890393     0.000000000000     1.007825032230
         H           -0.749411956278    -1.717548676513     0.000000000000     1.007825032230

  Nuclear repulsion =    4.958330571150721

  ==> Basis Set <==

  Basis Set: 6-31+G*
    Blend: 6-31+G*
    Number of shells: 12
    Number of basis functions: 23
    Number of Cartesian functions: 23
    Spherical Harmonics?: false
    Max angular momentum: 2

  ==> DFJKGrad: Density-Fitted SCF Gradients <==

    Gradient:                    1
    J tasked:                  Yes
    K tasked:                  Yes
    wK tasked:                  No
    OpenMP threads:             16
    Integrals threads:          16
    Memory [MiB]:              429
    Schwarz Cutoff:          1E-12
    Fitting Condition:       1E-10

   => Auxiliary Basis Set <=

  Basis Set: (6-31+G* AUX)
    Blend: HEAVY-AUG-CC-PVDZ-JKFIT
    Number of shells: 46
    Number of basis functions: 151
    Number of Cartesian functions: 151
    Spherical Harmonics?: false
    Max angular momentum: 3

  ==> DFT Potential <==

   => LibXC <=

    Version 6.2.2
    S. Lehtola, C. Steigemann, M. J.T. Oliveira, and M. A.L. Marques.,  SoftwareX 7, 1–5 (2018) (10.1016/j.softx.2017.11.002)

   => Composite Functional: B3LYP <= 

    B3LYP Hyb-GGA Exchange-Correlation Functional

    P. J. Stephens, F. J. Devlin, C. F. Chabalowski, and M. J. Frisch.,  J. Phys. Chem. 98, 11623 (1994) (10.1021/j100096a001)

    Deriv               =              1
    GGA                 =           TRUE
    Meta                =          FALSE

    Exchange Hybrid     =           TRUE
    MP2 Hybrid          =          FALSE

   => Exchange Functionals <=

    0.0800   Slater exchange
    0.7200         Becke 88

   => Exact (HF) Exchange <=

    0.2000               HF 

   => Correlation Functionals <=

    0.1900   Vosko, Wilk & Nusair (VWN5_RPA)
    0.8100   Lee, Yang & Parr

   => LibXC Density Thresholds  <==

    XC_HYB_GGA_XC_B3LYP:  1.00E-15 

   => Molecular Quadrature <=

    Radial Scheme          =       TREUTLER
    Pruning Scheme         =           NONE
    Nuclear Scheme         =       TREUTLER

    Blocking Scheme        =         OCTREE
    BS radius alpha        =              1
    Pruning alpha          =              1
    Radial Points          =             75
    Spherical Points       =            302
    Total Points           =          66825
    Total Blocks           =            561
    Max Points             =            255
    Max Functions          =             23
    Weights Tolerance      =       1.00E-15


  -Total Gradient:
     Atom            X                  Y                   Z
    ------   -----------------  -----------------  -----------------
       1        0.096250360646    -0.002792949013     0.000000000000
       2       -0.068628322164     0.069555095846     0.000000000000
       3       -0.027625920537    -0.066766953048     0.000000000000


*** tstop() called on cn0570 at Mon May 13 14:07:51 2024
Module time:
	user time   =       2.26 seconds =       0.04 minutes
	system time =       0.27 seconds =       0.00 minutes
	total time  =          0 seconds =       0.00 minutes
Total time:
	user time   =      31.36 seconds =       0.52 minutes
	system time =       3.73 seconds =       0.06 minutes
	total time  =          6 seconds =       0.10 minutes

    			-----------------------------------------

    			 OPTKING 3.0: for geometry optimizations 

    			     By R.A. King, Bethel University     

    			        with contributions from          

    			    A.V. Copan, J. Cayton, A. Heide      

    			-----------------------------------------

    
	                            ===> Fragment 1 <== 

	 Z (Atomic Numbers)          Masses                          Geom                  
	       8.000000            15.994915          0.21891785  0.07075049  0.00000000   
	       1.000000             1.007825         -2.05820172  2.12283497  0.00000000   
	       1.000000             1.007825         -1.41618335 -3.24569661  0.00000000   

	 - Coordinate -           - BOHR/RAD -       - ANG/DEG -
	 R(1,2)           =         3.065342           1.622109
	 R(1,3)           =         3.697618           1.956695
	 B(2,1,3)         =         1.846206         105.779816


	        --- Internal Coordinate Step in ANG or DEG, aJ/ANG or AJ/DEG ---
	-------------------------------------------------------------------------------
	           Coordinate      Previous         Force          Change          New 
	           ----------      --------        ------          ------        ------
	               R(1,2)       1.62211       -0.80365       -0.41812       1.20399
	               R(1,3)       1.95670       -0.59400       -0.31881       1.63789
	             B(2,1,3)     105.77982       -0.00134       -6.47022      99.30959
	-------------------------------------------------------------------------------

	                                 ==> Convergence Check <==                                  
    
	Measures of convergence in internal coordinates in au.
    
	Criteria marked as inactive (o), active & met (*), and active & unmet ( ).

	----------------------------------------------------------------------------------------------
	   Step    Total Energy     Delta E     Max Force     RMS Force      Max Disp      RMS Disp   
	----------------------------------------------------------------------------------------------
	  Convergence Criteria     1.00e-06 *    3.00e-04 *             o    1.20e-03 *             o
	----------------------------------------------------------------------------------------------
	     2     -76.13745141   -5.62e-02      9.75e-02      7.08e-02 o    7.90e-01      5.77e-01 o  ~
	----------------------------------------------------------------------------------------------

Next Geometry in Ang 
	Fragment 1 (Ang)

	    O  -0.0015444286   0.0599173633   0.0000000000
	    H  -0.9676195782   0.7784574349   0.0000000000
	    H  -0.7535550620  -1.3951280370   0.0000000000


    Structure for next step:
    Molecular point group: cs
    Full point group: Cs

    Geometry (in Angstrom), charge = 0, multiplicity = 1:

    O            0.096139676356     0.041212950272     0.000000000000
    H           -0.869935473288     0.759753021830     0.000000000000
    H           -0.655870957088    -1.413832450048     0.000000000000


Scratch directory: /scratch.global/lever046/psi4/
gradient() will perform analytic gradient computation.
   => Libint2 <=

    Primary   basis highest AM E, G, H:  5, 4, 3
    Auxiliary basis highest AM E, G, H:  6, 5, 4
    Onebody   basis highest AM E, G, H:  6, 5, 4
    Solid Harmonics ordering:            Gaussian

*** tstart() called on cn0570
*** at Mon May 13 14:07:51 2024

   => Loading Basis Set <=

    Name: 6-31+G*
    Role: ORBITAL
    Keyword: BASIS
    atoms 1   entry O          line   157 file /panfs/jay/groups/28/lever046/lever046/psi4conda/share/psi4/basis/6-31pgs.gbs 
    atoms 2-3 entry H          line    46 file /panfs/jay/groups/28/lever046/lever046/psi4conda/share/psi4/basis/6-31pgs.gbs 


         ---------------------------------------------------------
                                   SCF
               by Justin Turney, Rob Parrish, Andy Simmonett
                          and Daniel G. A. Smith
                              RKS Reference
                       16 Threads,    572 MiB Core
         ---------------------------------------------------------

  ==> Geometry <==

    Molecular point group: cs
    Full point group: Cs

    Geometry (in Angstrom), charge = 0, multiplicity = 1:

       Center              X                  Y                   Z               Mass       
    ------------   -----------------  -----------------  -----------------  -----------------
         O            0.096139676356     0.041212950272     0.000000000000    15.994914619570
         H           -0.869935473288     0.759753021830     0.000000000000     1.007825032230
         H           -0.655870957088    -1.413832450048     0.000000000000     1.007825032230

  Running in cs symmetry.

  Rotational constants: A =     13.34577  B =      6.23339  C =      4.24887 [cm^-1]
  Rotational constants: A = 400096.21141  B = 186872.19626  C = 127377.99303 [MHz]
  Nuclear repulsion =    6.343112656188125

  Charge       = 0
  Multiplicity = 1
  Electrons    = 10
  Nalpha       = 5
  Nbeta        = 5

  ==> Algorithm <==

  SCF Algorithm Type is DF.
  DIIS enabled.
  MOM disabled.
  Fractional occupation disabled.
  Guess Type is READ.
  Energy threshold   = 1.00e-08
  Density threshold  = 1.00e-08
  Integral threshold = 1.00e-12

  ==> Primary Basis <==

  Basis Set: 6-31+G*
    Blend: 6-31+G*
    Number of shells: 12
    Number of basis functions: 23
    Number of Cartesian functions: 23
    Spherical Harmonics?: false
    Max angular momentum: 2

  ==> DFT Potential <==

   => LibXC <=

    Version 6.2.2
    S. Lehtola, C. Steigemann, M. J.T. Oliveira, and M. A.L. Marques.,  SoftwareX 7, 1–5 (2018) (10.1016/j.softx.2017.11.002)

   => Composite Functional: B3LYP <= 

    B3LYP Hyb-GGA Exchange-Correlation Functional

    P. J. Stephens, F. J. Devlin, C. F. Chabalowski, and M. J. Frisch.,  J. Phys. Chem. 98, 11623 (1994) (10.1021/j100096a001)

    Deriv               =              1
    GGA                 =           TRUE
    Meta                =          FALSE

    Exchange Hybrid     =           TRUE
    MP2 Hybrid          =          FALSE

   => Exchange Functionals <=

    0.0800   Slater exchange
    0.7200         Becke 88

   => Exact (HF) Exchange <=

    0.2000               HF 

   => Correlation Functionals <=

    0.1900   Vosko, Wilk & Nusair (VWN5_RPA)
    0.8100   Lee, Yang & Parr

   => LibXC Density Thresholds  <==

    XC_HYB_GGA_XC_B3LYP:  1.00E-15 

   => Molecular Quadrature <=

    Radial Scheme          =       TREUTLER
    Pruning Scheme         =           NONE
    Nuclear Scheme         =       TREUTLER

    Blocking Scheme        =         OCTREE
    BS radius alpha        =              1
    Pruning alpha          =              1
    Radial Points          =             75
    Spherical Points       =            302
    Total Points           =          66759
    Total Blocks           =            553
    Max Points             =            255
    Max Functions          =             23
    Weights Tolerance      =       1.00E-15

   => Loading Basis Set <=

    Name: (6-31+G* AUX)
    Role: JKFIT
    Keyword: DF_BASIS_SCF
    atoms 1   entry O          line   310 file /panfs/jay/groups/28/lever046/lever046/psi4conda/share/psi4/basis/heavy-aug-cc-pvdz-jkfit.gbs 
    atoms 2-3 entry H          line   116 file /panfs/jay/groups/28/lever046/lever046/psi4conda/share/psi4/basis/heavy-aug-cc-pvdz-jkfit.gbs 

   => Loading Basis Set <=

    Name: 6-31+G*
    Role: ORBITAL
    Keyword: BASIS
    atoms 1   entry O          line   157 file /panfs/jay/groups/28/lever046/lever046/psi4conda/share/psi4/basis/6-31pgs.gbs 
    atoms 2-3 entry H          line    46 file /panfs/jay/groups/28/lever046/lever046/psi4conda/share/psi4/basis/6-31pgs.gbs 

  Reading orbitals from file /scratch.global/lever046/psi4/ps4_h2o_b3lyp_nosmd_opt.h2o.3843167.180.npy, no projection.

  ==> Integral Setup <==

  DFHelper Memory: AOs need 0.001 GiB; user supplied 0.376 GiB. 
  Using in-core AOs.

  ==> MemDFJK: Density-Fitted J/K Matrices <==

    J tasked:                   Yes
    K tasked:                   Yes
    wK tasked:                   No
    OpenMP threads:              16
    Memory [MiB]:               384
    Algorithm:                 Core
    Schwarz Cutoff:           1E-12
    Mask sparsity (%):       0.0000
    Fitting Condition:        1E-10

   => Auxiliary Basis Set <=

  Basis Set: (6-31+G* AUX)
    Blend: HEAVY-AUG-CC-PVDZ-JKFIT
    Number of shells: 46
    Number of basis functions: 151
    Number of Cartesian functions: 151
    Spherical Harmonics?: false
    Max angular momentum: 3

  Cached 100.0% of DFT collocation blocks in 0.043 [GiB].

  Minimum eigenvalue in the overlap matrix is 2.1666154468E-02.
  Reciprocal condition number of the overlap matrix is 4.7415760919E-03.
    Using symmetric orthogonalization.

  ==> Pre-Iterations <==

  SCF Guess: Orbitals guess was supplied from a previous computation.

   -------------------------------------------------------
    Irrep   Nso     Nmo     Nalpha   Nbeta   Ndocc  Nsocc
   -------------------------------------------------------
     A'        18      18       4       4       4       0
     A"         5       5       1       1       1       0
   -------------------------------------------------------
    Total      23      23       5       5       5       0
   -------------------------------------------------------

  ==> Iterations <==

                           Total Energy        Delta E     RMS |[F,P]|

   @DF-RKS iter   0:   -76.41195910262795   -7.64120e+01   1.97772e-02 
   @DF-RKS iter   1:   -76.26887957671360    1.43080e-01   5.74889e-03 DIIS/ADIIS
   @DF-RKS iter   2:   -76.27253674628054   -3.65717e-03   3.50694e-03 DIIS/ADIIS
   @DF-RKS iter   3:   -76.27192512314522    6.11623e-04   4.11496e-03 DIIS/ADIIS
   @DF-RKS iter   4:   -76.27451304627007   -2.58792e-03   1.14685e-04 DIIS/ADIIS
   @DF-RKS iter   5:   -76.27451475693988   -1.71067e-06   9.35907e-05 DIIS
   @DF-RKS iter   6:   -76.27451663333942   -1.87640e-06   3.07172e-06 DIIS
   @DF-RKS iter   7:   -76.27451663856722   -5.22780e-09   1.34727e-06 DIIS
   @DF-RKS iter   8:   -76.27451663899664   -4.29424e-10   2.79191e-07 DIIS
   @DF-RKS iter   9:   -76.27451663901432   -1.76783e-11   4.79477e-09 DIIS
  Energy and wave function converged.


  ==> Post-Iterations <==

   Electrons on quadrature grid:
      Ntotal   =    9.9999995009 ; deviation = -4.991e-07 

    Orbital Energies [Eh]
    ---------------------

    Doubly Occupied:                                                      

       1Ap   -19.219235     2Ap    -0.926451     3Ap    -0.426113  
       4Ap    -0.366268     1App   -0.306076  

    Virtual:                                                              

       5Ap    -0.123540     6Ap     0.008094     7Ap     0.154266  
       2App    0.156840     8Ap     0.177723     9Ap     0.210146  
      10Ap     0.748735    11Ap     0.812403     3App    1.121885  
      12Ap     1.166481    13Ap     1.220640    14Ap     1.291253  
      15Ap     1.759378     4App    1.779515     5App    1.797787  
      16Ap     1.839921    17Ap     2.128665    18Ap     3.643533  

    Final Occupation by Irrep:
             Ap   App 
    DOCC [     4,    1 ]
    NA   [     4,    1 ]
    NB   [     4,    1 ]

  @DF-RKS Final Energy:   -76.27451663901432

   => Energetics <=

    Nuclear Repulsion Energy =              6.3431126561881248
    One-Electron Energy =                -117.4864773712747876
    Two-Electron Energy =                  42.1836991990230530
    DFT Exchange-Correlation Energy =      -7.3148511229507163
    Empirical Dispersion Energy =           0.0000000000000000
    VV10 Nonlocal Energy =                  0.0000000000000000
    Total Energy =                        -76.2745166390143225

Computation Completed


Properties will be evaluated at   0.000000,   0.000000,   0.000000 [a0]

Properties computed using the SCF density matrix


 Multipole Moments:

 ------------------------------------------------------------------------------------
     Multipole            Electronic (a.u.)      Nuclear  (a.u.)        Total (a.u.)
 ------------------------------------------------------------------------------------

 L = 1.  Multiply by 2.5417464519 to convert [e a0] to [Debye]
 Dipole X            :          0.5226973           -1.4299350           -0.9072377
 Dipole Y            :          0.3973539           -0.6129815           -0.2156276
 Dipole Z            :          0.0000000            0.0000000            0.0000000
 Magnitude           :                                                    0.9325103

 ------------------------------------------------------------------------------------

*** tstop() called on cn0570 at Mon May 13 14:07:52 2024
Module time:
	user time   =       5.85 seconds =       0.10 minutes
	system time =       0.50 seconds =       0.01 minutes
	total time  =          1 seconds =       0.02 minutes
Total time:
	user time   =      38.15 seconds =       0.64 minutes
	system time =       4.34 seconds =       0.07 minutes
	total time  =          7 seconds =       0.12 minutes

*** tstart() called on cn0570
*** at Mon May 13 14:07:52 2024


         ------------------------------------------------------------
                                   SCF GRAD                          
                          Rob Parrish, Justin Turney,                
                       Andy Simmonett, and Alex Sokolov              
         ------------------------------------------------------------

  ==> Geometry <==

    Molecular point group: cs
    Full point group: Cs

    Geometry (in Angstrom), charge = 0, multiplicity = 1:

       Center              X                  Y                   Z               Mass       
    ------------   -----------------  -----------------  -----------------  -----------------
         O            0.096139676356     0.041212950272     0.000000000000    15.994914619570
         H           -0.869935473288     0.759753021830     0.000000000000     1.007825032230
         H           -0.655870957088    -1.413832450048     0.000000000000     1.007825032230

  Nuclear repulsion =    6.343112656188125

  ==> Basis Set <==

  Basis Set: 6-31+G*
    Blend: 6-31+G*
    Number of shells: 12
    Number of basis functions: 23
    Number of Cartesian functions: 23
    Spherical Harmonics?: false
    Max angular momentum: 2

  ==> DFJKGrad: Density-Fitted SCF Gradients <==

    Gradient:                    1
    J tasked:                  Yes
    K tasked:                  Yes
    wK tasked:                  No
    OpenMP threads:             16
    Integrals threads:          16
    Memory [MiB]:              429
    Schwarz Cutoff:          1E-12
    Fitting Condition:       1E-10

   => Auxiliary Basis Set <=

  Basis Set: (6-31+G* AUX)
    Blend: HEAVY-AUG-CC-PVDZ-JKFIT
    Number of shells: 46
    Number of basis functions: 151
    Number of Cartesian functions: 151
    Spherical Harmonics?: false
    Max angular momentum: 3

  ==> DFT Potential <==

   => LibXC <=

    Version 6.2.2
    S. Lehtola, C. Steigemann, M. J.T. Oliveira, and M. A.L. Marques.,  SoftwareX 7, 1–5 (2018) (10.1016/j.softx.2017.11.002)

   => Composite Functional: B3LYP <= 

    B3LYP Hyb-GGA Exchange-Correlation Functional

    P. J. Stephens, F. J. Devlin, C. F. Chabalowski, and M. J. Frisch.,  J. Phys. Chem. 98, 11623 (1994) (10.1021/j100096a001)

    Deriv               =              1
    GGA                 =           TRUE
    Meta                =          FALSE

    Exchange Hybrid     =           TRUE
    MP2 Hybrid          =          FALSE

   => Exchange Functionals <=

    0.0800   Slater exchange
    0.7200         Becke 88

   => Exact (HF) Exchange <=

    0.2000               HF 

   => Correlation Functionals <=

    0.1900   Vosko, Wilk & Nusair (VWN5_RPA)
    0.8100   Lee, Yang & Parr

   => LibXC Density Thresholds  <==

    XC_HYB_GGA_XC_B3LYP:  1.00E-15 

   => Molecular Quadrature <=

    Radial Scheme          =       TREUTLER
    Pruning Scheme         =           NONE
    Nuclear Scheme         =       TREUTLER

    Blocking Scheme        =         OCTREE
    BS radius alpha        =              1
    Pruning alpha          =              1
    Radial Points          =             75
    Spherical Points       =            302
    Total Points           =          66759
    Total Blocks           =            553
    Max Points             =            255
    Max Functions          =             23
    Weights Tolerance      =       1.00E-15


  -Total Gradient:
     Atom            X                  Y                   Z
    ------   -----------------  -----------------  -----------------
       1        0.120901299023     0.023906006284     0.000000000000
       2       -0.079013388441     0.064455898794     0.000000000000
       3       -0.041890350145    -0.088359489730     0.000000000000


*** tstop() called on cn0570 at Mon May 13 14:07:52 2024
Module time:
	user time   =       2.29 seconds =       0.04 minutes
	system time =       0.28 seconds =       0.00 minutes
	total time  =          0 seconds =       0.00 minutes
Total time:
	user time   =      40.47 seconds =       0.67 minutes
	system time =       4.62 seconds =       0.08 minutes
	total time  =          7 seconds =       0.12 minutes

    			-----------------------------------------

    			 OPTKING 3.0: for geometry optimizations 

    			     By R.A. King, Bethel University     

    			        with contributions from          

    			    A.V. Copan, J. Cayton, A. Heide      

    			-----------------------------------------

    
	                            ===> Fragment 1 <== 

	 Z (Atomic Numbers)          Masses                          Geom                  
	       8.000000            15.994915          0.18167766  0.07788119  0.00000000   
	       1.000000             1.007825         -1.64393979  1.43572513  0.00000000   
	       1.000000             1.007825         -1.23941648 -2.67175612  0.00000000   

	 - Coordinate -           - BOHR/RAD -       - ANG/DEG -
	 R(1,2)           =         2.275219           1.203994
	 R(1,3)           =         3.095160           1.637888
	 B(2,1,3)         =         1.733279          99.309592


	        --- Internal Coordinate Step in ANG or DEG, aJ/ANG or AJ/DEG ---
	-------------------------------------------------------------------------------
	           Coordinate      Previous         Force          Change          New 
	           ----------      --------        ------          ------        ------
	               R(1,2)       1.20399       -0.83924       -0.37126       0.83273
	               R(1,3)       1.63789       -0.80517       -0.37529       1.26260
	             B(2,1,3)      99.30959       -0.00079       -3.97961      95.32998
	-------------------------------------------------------------------------------

	                                 ==> Convergence Check <==                                  
    
	Measures of convergence in internal coordinates in au.
    
	Criteria marked as inactive (o), active & met (*), and active & unmet ( ).

	----------------------------------------------------------------------------------------------
	   Step    Total Energy     Delta E     Max Force     RMS Force      Max Disp      RMS Disp   
	----------------------------------------------------------------------------------------------
	  Convergence Criteria     1.00e-06 *    3.00e-04 *             o    1.20e-03 *             o
	----------------------------------------------------------------------------------------------
	     3     -76.27451664   -1.37e-01      1.02e-01      8.17e-02 o    7.09e-01      5.77e-01 o  ~
	----------------------------------------------------------------------------------------------

Next Geometry in Ang 
	Fragment 1 (Ang)

	    O  -0.0496248747   0.0197734717   0.0000000000
	    H  -0.7506598630   0.4692089528   0.0000000000
	    H  -0.6293820163  -1.1018489024   0.0000000000


    Structure for next step:
    Molecular point group: cs
    Full point group: Cs

    Geometry (in Angstrom), charge = 0, multiplicity = 1:

    O            0.071669844466     0.037613855476     0.000000000000
    H           -0.629365143849     0.487049336561     0.000000000000
    H           -0.508087297167    -1.084008518572     0.000000000000


Scratch directory: /scratch.global/lever046/psi4/
gradient() will perform analytic gradient computation.
   => Libint2 <=

    Primary   basis highest AM E, G, H:  5, 4, 3
    Auxiliary basis highest AM E, G, H:  6, 5, 4
    Onebody   basis highest AM E, G, H:  6, 5, 4
    Solid Harmonics ordering:            Gaussian

*** tstart() called on cn0570
*** at Mon May 13 14:07:52 2024

   => Loading Basis Set <=

    Name: 6-31+G*
    Role: ORBITAL
    Keyword: BASIS
    atoms 1   entry O          line   157 file /panfs/jay/groups/28/lever046/lever046/psi4conda/share/psi4/basis/6-31pgs.gbs 
    atoms 2-3 entry H          line    46 file /panfs/jay/groups/28/lever046/lever046/psi4conda/share/psi4/basis/6-31pgs.gbs 


         ---------------------------------------------------------
                                   SCF
               by Justin Turney, Rob Parrish, Andy Simmonett
                          and Daniel G. A. Smith
                              RKS Reference
                       16 Threads,    572 MiB Core
         ---------------------------------------------------------

  ==> Geometry <==

    Molecular point group: cs
    Full point group: Cs

    Geometry (in Angstrom), charge = 0, multiplicity = 1:

       Center              X                  Y                   Z               Mass       
    ------------   -----------------  -----------------  -----------------  -----------------
         O            0.071669844466     0.037613855476     0.000000000000    15.994914619570
         H           -0.629365143849     0.487049336561     0.000000000000     1.007825032230
         H           -0.508087297167    -1.084008518572     0.000000000000     1.007825032230

  Running in cs symmetry.

  Rotational constants: A =     26.42379  B =     10.87917  C =      7.70633 [cm^-1]
  Rotational constants: A = 792165.28445  B = 326149.36459  C = 231029.97390 [MHz]
  Nuclear repulsion =    8.772540556943854

  Charge       = 0
  Multiplicity = 1
  Electrons    = 10
  Nalpha       = 5
  Nbeta        = 5

  ==> Algorithm <==

  SCF Algorithm Type is DF.
  DIIS enabled.
  MOM disabled.
  Fractional occupation disabled.
  Guess Type is READ.
  Energy threshold   = 1.00e-08
  Density threshold  = 1.00e-08
  Integral threshold = 1.00e-12

  ==> Primary Basis <==

  Basis Set: 6-31+G*
    Blend: 6-31+G*
    Number of shells: 12
    Number of basis functions: 23
    Number of Cartesian functions: 23
    Spherical Harmonics?: false
    Max angular momentum: 2

  ==> DFT Potential <==

   => LibXC <=

    Version 6.2.2
    S. Lehtola, C. Steigemann, M. J.T. Oliveira, and M. A.L. Marques.,  SoftwareX 7, 1–5 (2018) (10.1016/j.softx.2017.11.002)

   => Composite Functional: B3LYP <= 

    B3LYP Hyb-GGA Exchange-Correlation Functional

    P. J. Stephens, F. J. Devlin, C. F. Chabalowski, and M. J. Frisch.,  J. Phys. Chem. 98, 11623 (1994) (10.1021/j100096a001)

    Deriv               =              1
    GGA                 =           TRUE
    Meta                =          FALSE

    Exchange Hybrid     =           TRUE
    MP2 Hybrid          =          FALSE

   => Exchange Functionals <=

    0.0800   Slater exchange
    0.7200         Becke 88

   => Exact (HF) Exchange <=

    0.2000               HF 

   => Correlation Functionals <=

    0.1900   Vosko, Wilk & Nusair (VWN5_RPA)
    0.8100   Lee, Yang & Parr

   => LibXC Density Thresholds  <==

    XC_HYB_GGA_XC_B3LYP:  1.00E-15 

   => Molecular Quadrature <=

    Radial Scheme          =       TREUTLER
    Pruning Scheme         =           NONE
    Nuclear Scheme         =       TREUTLER

    Blocking Scheme        =         OCTREE
    BS radius alpha        =              1
    Pruning alpha          =              1
    Radial Points          =             75
    Spherical Points       =            302
    Total Points           =          66596
    Total Blocks           =            559
    Max Points             =            256
    Max Functions          =             23
    Weights Tolerance      =       1.00E-15

   => Loading Basis Set <=

    Name: (6-31+G* AUX)
    Role: JKFIT
    Keyword: DF_BASIS_SCF
    atoms 1   entry O          line   310 file /panfs/jay/groups/28/lever046/lever046/psi4conda/share/psi4/basis/heavy-aug-cc-pvdz-jkfit.gbs 
    atoms 2-3 entry H          line   116 file /panfs/jay/groups/28/lever046/lever046/psi4conda/share/psi4/basis/heavy-aug-cc-pvdz-jkfit.gbs 

   => Loading Basis Set <=

    Name: 6-31+G*
    Role: ORBITAL
    Keyword: BASIS
    atoms 1   entry O          line   157 file /panfs/jay/groups/28/lever046/lever046/psi4conda/share/psi4/basis/6-31pgs.gbs 
    atoms 2-3 entry H          line    46 file /panfs/jay/groups/28/lever046/lever046/psi4conda/share/psi4/basis/6-31pgs.gbs 

  Reading orbitals from file /scratch.global/lever046/psi4/ps4_h2o_b3lyp_nosmd_opt.h2o.3843167.180.npy, no projection.

  ==> Integral Setup <==

  DFHelper Memory: AOs need 0.001 GiB; user supplied 0.375 GiB. 
  Using in-core AOs.

  ==> MemDFJK: Density-Fitted J/K Matrices <==

    J tasked:                   Yes
    K tasked:                   Yes
    wK tasked:                   No
    OpenMP threads:              16
    Memory [MiB]:               384
    Algorithm:                 Core
    Schwarz Cutoff:           1E-12
    Mask sparsity (%):       0.0000
    Fitting Condition:        1E-10

   => Auxiliary Basis Set <=

  Basis Set: (6-31+G* AUX)
    Blend: HEAVY-AUG-CC-PVDZ-JKFIT
    Number of shells: 46
    Number of basis functions: 151
    Number of Cartesian functions: 151
    Spherical Harmonics?: false
    Max angular momentum: 3

  Cached 100.0% of DFT collocation blocks in 0.044 [GiB].

  Minimum eigenvalue in the overlap matrix is 1.5982191929E-02.
  Reciprocal condition number of the overlap matrix is 3.0546826260E-03.
    Using symmetric orthogonalization.

  ==> Pre-Iterations <==

  SCF Guess: Orbitals guess was supplied from a previous computation.

   -------------------------------------------------------
    Irrep   Nso     Nmo     Nalpha   Nbeta   Ndocc  Nsocc
   -------------------------------------------------------
     A'        18      18       4       4       4       0
     A"         5       5       1       1       1       0
   -------------------------------------------------------
    Total      23      23       5       5       5       0
   -------------------------------------------------------

  ==> Iterations <==

                           Total Energy        Delta E     RMS |[F,P]|

   @DF-RKS iter   0:   -76.54834145790089   -7.65483e+01   3.51061e-02 
   @DF-RKS iter   1:   -76.34132618117117    2.07015e-01   9.36343e-03 DIIS/ADIIS
   @DF-RKS iter   2:   -76.32740722446222    1.39190e-02   1.36964e-02 DIIS/ADIIS
   @DF-RKS iter   3:   -76.35277698595711   -2.53698e-02   2.12506e-03 DIIS/ADIIS
   @DF-RKS iter   4:   -76.35338644783066   -6.09462e-04   8.65871e-05 DIIS
   @DF-RKS iter   5:   -76.35338774719362   -1.29936e-06   1.69465e-05 DIIS
   @DF-RKS iter   6:   -76.35338780690961   -5.97160e-08   3.05545e-06 DIIS
   @DF-RKS iter   7:   -76.35338780846686   -1.55725e-09   3.46213e-07 DIIS
   @DF-RKS iter   8:   -76.35338780848687   -2.00089e-11   1.83023e-08 DIIS
   @DF-RKS iter   9:   -76.35338780848693   -5.68434e-14   1.42163e-09 DIIS
  Energy and wave function converged.


  ==> Post-Iterations <==

   Electrons on quadrature grid:
      Ntotal   =    9.9999979468 ; deviation = -2.053e-06 

    Orbital Energies [Eh]
    ---------------------

    Doubly Occupied:                                                      

       1Ap   -19.177289     2Ap    -1.030494     3Ap    -0.501479  
       4Ap    -0.404080     1App   -0.319062  

    Virtual:                                                              

       5Ap    -0.031837     6Ap     0.093413     2App    0.155575  
       7Ap     0.156275     8Ap     0.177681     9Ap     0.289595  
      10Ap     0.780773    11Ap     1.087536     3App    1.115763  
      12Ap     1.151013    13Ap     1.208395    14Ap     1.321337  
      15Ap     1.698384     4App    1.727812     5App    1.767985  
      16Ap     2.006091    17Ap     2.702948    18Ap     3.706711  

    Final Occupation by Irrep:
             Ap   App 
    DOCC [     4,    1 ]
    NA   [     4,    1 ]
    NB   [     4,    1 ]

  @DF-RKS Final Energy:   -76.35338780848693

   => Energetics <=

    Nuclear Repulsion Energy =              8.7725405569438539
    One-Electron Energy =                -121.9987342954661926
    Two-Electron Energy =                  44.3747235848402113
    DFT Exchange-Correlation Energy =      -7.5019176548047941
    Empirical Dispersion Energy =           0.0000000000000000
    VV10 Nonlocal Energy =                  0.0000000000000000
    Total Energy =                        -76.3533878084869286

Computation Completed


Properties will be evaluated at   0.000000,   0.000000,   0.000000 [a0]

Properties computed using the SCF density matrix


 Multipole Moments:

 ------------------------------------------------------------------------------------
     Multipole            Electronic (a.u.)      Nuclear  (a.u.)        Total (a.u.)
 ------------------------------------------------------------------------------------

 L = 1.  Multiply by 2.5417464519 to convert [e a0] to [Debye]
 Dipole X            :          0.1571935           -1.0659826           -0.9087891
 Dipole Y            :          0.2551678           -0.5594503           -0.3042825
 Dipole Z            :          0.0000000            0.0000000            0.0000000
 Magnitude           :                                                    0.9583765

 ------------------------------------------------------------------------------------

*** tstop() called on cn0570 at Mon May 13 14:07:52 2024
Module time:
	user time   =       5.57 seconds =       0.09 minutes
	system time =       0.45 seconds =       0.01 minutes
	total time  =          0 seconds =       0.00 minutes
Total time:
	user time   =      46.99 seconds =       0.78 minutes
	system time =       5.17 seconds =       0.09 minutes
	total time  =          7 seconds =       0.12 minutes

*** tstart() called on cn0570
*** at Mon May 13 14:07:52 2024


         ------------------------------------------------------------
                                   SCF GRAD                          
                          Rob Parrish, Justin Turney,                
                       Andy Simmonett, and Alex Sokolov              
         ------------------------------------------------------------

  ==> Geometry <==

    Molecular point group: cs
    Full point group: Cs

    Geometry (in Angstrom), charge = 0, multiplicity = 1:

       Center              X                  Y                   Z               Mass       
    ------------   -----------------  -----------------  -----------------  -----------------
         O            0.071669844466     0.037613855476     0.000000000000    15.994914619570
         H           -0.629365143849     0.487049336561     0.000000000000     1.007825032230
         H           -0.508087297167    -1.084008518572     0.000000000000     1.007825032230

  Nuclear repulsion =    8.772540556943854

  ==> Basis Set <==

  Basis Set: 6-31+G*
    Blend: 6-31+G*
    Number of shells: 12
    Number of basis functions: 23
    Number of Cartesian functions: 23
    Spherical Harmonics?: false
    Max angular momentum: 2

  ==> DFJKGrad: Density-Fitted SCF Gradients <==

    Gradient:                    1
    J tasked:                  Yes
    K tasked:                  Yes
    wK tasked:                  No
    OpenMP threads:             16
    Integrals threads:          16
    Memory [MiB]:              429
    Schwarz Cutoff:          1E-12
    Fitting Condition:       1E-10

   => Auxiliary Basis Set <=

  Basis Set: (6-31+G* AUX)
    Blend: HEAVY-AUG-CC-PVDZ-JKFIT
    Number of shells: 46
    Number of basis functions: 151
    Number of Cartesian functions: 151
    Spherical Harmonics?: false
    Max angular momentum: 3

  ==> DFT Potential <==

   => LibXC <=

    Version 6.2.2
    S. Lehtola, C. Steigemann, M. J.T. Oliveira, and M. A.L. Marques.,  SoftwareX 7, 1–5 (2018) (10.1016/j.softx.2017.11.002)

   => Composite Functional: B3LYP <= 

    B3LYP Hyb-GGA Exchange-Correlation Functional

    P. J. Stephens, F. J. Devlin, C. F. Chabalowski, and M. J. Frisch.,  J. Phys. Chem. 98, 11623 (1994) (10.1021/j100096a001)

    Deriv               =              1
    GGA                 =           TRUE
    Meta                =          FALSE

    Exchange Hybrid     =           TRUE
    MP2 Hybrid          =          FALSE

   => Exchange Functionals <=

    0.0800   Slater exchange
    0.7200         Becke 88

   => Exact (HF) Exchange <=

    0.2000               HF 

   => Correlation Functionals <=

    0.1900   Vosko, Wilk & Nusair (VWN5_RPA)
    0.8100   Lee, Yang & Parr

   => LibXC Density Thresholds  <==

    XC_HYB_GGA_XC_B3LYP:  1.00E-15 

   => Molecular Quadrature <=

    Radial Scheme          =       TREUTLER
    Pruning Scheme         =           NONE
    Nuclear Scheme         =       TREUTLER

    Blocking Scheme        =         OCTREE
    BS radius alpha        =              1
    Pruning alpha          =              1
    Radial Points          =             75
    Spherical Points       =            302
    Total Points           =          66596
    Total Blocks           =            559
    Max Points             =            256
    Max Functions          =             23
    Weights Tolerance      =       1.00E-15


  -Total Gradient:
     Atom            X                  Y                   Z
    ------   -----------------  -----------------  -----------------
       1       -0.128250727722     0.227170963299     0.000000000000
       2        0.185617396240    -0.132422628912     0.000000000000
       3       -0.057365994937    -0.094750586771     0.000000000000


*** tstop() called on cn0570 at Mon May 13 14:07:53 2024
Module time:
	user time   =       2.82 seconds =       0.05 minutes
	system time =       0.36 seconds =       0.01 minutes
	total time  =          1 seconds =       0.02 minutes
Total time:
	user time   =      49.84 seconds =       0.83 minutes
	system time =       5.53 seconds =       0.09 minutes
	total time  =          8 seconds =       0.13 minutes

    			-----------------------------------------

    			 OPTKING 3.0: for geometry optimizations 

    			     By R.A. King, Bethel University     

    			        with contributions from          

    			    A.V. Copan, J. Cayton, A. Heide      

    			-----------------------------------------

    
	                            ===> Fragment 1 <== 

	 Z (Atomic Numbers)          Masses                          Geom                  
	       8.000000            15.994915          0.13543638  0.07107989  0.00000000   
	       1.000000             1.007825         -1.18932775  0.92038986  0.00000000   
	       1.000000             1.007825         -0.96014584 -2.04847922  0.00000000   

	 - Coordinate -           - BOHR/RAD -       - ANG/DEG -
	 R(1,2)           =         1.573635           0.832732
	 R(1,3)           =         2.385965           1.262599
	 B(2,1,3)         =         1.663822          95.329984


	        --- Internal Coordinate Step in ANG or DEG, aJ/ANG or AJ/DEG ---
	-------------------------------------------------------------------------------
	           Coordinate      Previous         Force          Change          New 
	           ----------      --------        ------          ------        ------
	               R(1,2)       0.83273        1.87621        0.28871       1.12145
	               R(1,3)       1.26260       -0.91047       -0.22005       1.04255
	             B(2,1,3)      95.32998        0.00135        1.83963      97.16962
	-------------------------------------------------------------------------------

	                                 ==> Convergence Check <==                                  
    
	Measures of convergence in internal coordinates in au.
    
	Criteria marked as inactive (o), active & met (*), and active & unmet ( ).

	----------------------------------------------------------------------------------------------
	   Step    Total Energy     Delta E     Max Force     RMS Force      Max Disp      RMS Disp   
	----------------------------------------------------------------------------------------------
	  Convergence Criteria     1.00e-06 *    3.00e-04 *             o    1.20e-03 *             o
	----------------------------------------------------------------------------------------------
	     4     -76.35338781   -7.89e-02      2.28e-01      1.47e-01 o    5.46e-01      3.96e-01 o  ~
	----------------------------------------------------------------------------------------------

Next Geometry in Ang 
	Fragment 1 (Ang)

	    O   0.1195097794  -0.1347589578   0.0000000000
	    H  -0.7395096711   0.5861607041   0.0000000000
	    H  -0.4457827049  -1.0107470728   0.0000000000


    Structure for next step:
    Molecular point group: cs
    Full point group: Cs

    Geometry (in Angstrom), charge = 0, multiplicity = 1:

    O            0.079700844858     0.008677233134     0.000000000000
    H           -0.779318605724     0.729596895098     0.000000000000
    H           -0.485591639453    -0.867310881824     0.000000000000


Scratch directory: /scratch.global/lever046/psi4/
gradient() will perform analytic gradient computation.
   => Libint2 <=

    Primary   basis highest AM E, G, H:  5, 4, 3
    Auxiliary basis highest AM E, G, H:  6, 5, 4
    Onebody   basis highest AM E, G, H:  6, 5, 4
    Solid Harmonics ordering:            Gaussian

*** tstart() called on cn0570
*** at Mon May 13 14:07:53 2024

   => Loading Basis Set <=

    Name: 6-31+G*
    Role: ORBITAL
    Keyword: BASIS
    atoms 1   entry O          line   157 file /panfs/jay/groups/28/lever046/lever046/psi4conda/share/psi4/basis/6-31pgs.gbs 
    atoms 2-3 entry H          line    46 file /panfs/jay/groups/28/lever046/lever046/psi4conda/share/psi4/basis/6-31pgs.gbs 


         ---------------------------------------------------------
                                   SCF
               by Justin Turney, Rob Parrish, Andy Simmonett
                          and Daniel G. A. Smith
                              RKS Reference
                       16 Threads,    572 MiB Core
         ---------------------------------------------------------

  ==> Geometry <==

    Molecular point group: cs
    Full point group: Cs

    Geometry (in Angstrom), charge = 0, multiplicity = 1:

       Center              X                  Y                   Z               Mass       
    ------------   -----------------  -----------------  -----------------  -----------------
         O            0.079700844858     0.008677233134     0.000000000000    15.994914619570
         H           -0.779318605724     0.729596895098     0.000000000000     1.007825032230
         H           -0.485591639453    -0.867310881824     0.000000000000     1.007825032230

  Running in cs symmetry.

  Rotational constants: A =     18.66497  B =     12.54322  C =      7.50184 [cm^-1]
  Rotational constants: A = 559561.73853  B = 376036.13872  C = 224899.43666 [MHz]
  Nuclear repulsion =    8.161511827650120

  Charge       = 0
  Multiplicity = 1
  Electrons    = 10
  Nalpha       = 5
  Nbeta        = 5

  ==> Algorithm <==

  SCF Algorithm Type is DF.
  DIIS enabled.
  MOM disabled.
  Fractional occupation disabled.
  Guess Type is READ.
  Energy threshold   = 1.00e-08
  Density threshold  = 1.00e-08
  Integral threshold = 1.00e-12

  ==> Primary Basis <==

  Basis Set: 6-31+G*
    Blend: 6-31+G*
    Number of shells: 12
    Number of basis functions: 23
    Number of Cartesian functions: 23
    Spherical Harmonics?: false
    Max angular momentum: 2

  ==> DFT Potential <==

   => LibXC <=

    Version 6.2.2
    S. Lehtola, C. Steigemann, M. J.T. Oliveira, and M. A.L. Marques.,  SoftwareX 7, 1–5 (2018) (10.1016/j.softx.2017.11.002)

   => Composite Functional: B3LYP <= 

    B3LYP Hyb-GGA Exchange-Correlation Functional

    P. J. Stephens, F. J. Devlin, C. F. Chabalowski, and M. J. Frisch.,  J. Phys. Chem. 98, 11623 (1994) (10.1021/j100096a001)

    Deriv               =              1
    GGA                 =           TRUE
    Meta                =          FALSE

    Exchange Hybrid     =           TRUE
    MP2 Hybrid          =          FALSE

   => Exchange Functionals <=

    0.0800   Slater exchange
    0.7200         Becke 88

   => Exact (HF) Exchange <=

    0.2000               HF 

   => Correlation Functionals <=

    0.1900   Vosko, Wilk & Nusair (VWN5_RPA)
    0.8100   Lee, Yang & Parr

   => LibXC Density Thresholds  <==

    XC_HYB_GGA_XC_B3LYP:  1.00E-15 

   => Molecular Quadrature <=

    Radial Scheme          =       TREUTLER
    Pruning Scheme         =           NONE
    Nuclear Scheme         =       TREUTLER

    Blocking Scheme        =         OCTREE
    BS radius alpha        =              1
    Pruning alpha          =              1
    Radial Points          =             75
    Spherical Points       =            302
    Total Points           =          66600
    Total Blocks           =            560
    Max Points             =            256
    Max Functions          =             23
    Weights Tolerance      =       1.00E-15

   => Loading Basis Set <=

    Name: (6-31+G* AUX)
    Role: JKFIT
    Keyword: DF_BASIS_SCF
    atoms 1   entry O          line   310 file /panfs/jay/groups/28/lever046/lever046/psi4conda/share/psi4/basis/heavy-aug-cc-pvdz-jkfit.gbs 
    atoms 2-3 entry H          line   116 file /panfs/jay/groups/28/lever046/lever046/psi4conda/share/psi4/basis/heavy-aug-cc-pvdz-jkfit.gbs 

   => Loading Basis Set <=

    Name: 6-31+G*
    Role: ORBITAL
    Keyword: BASIS
    atoms 1   entry O          line   157 file /panfs/jay/groups/28/lever046/lever046/psi4conda/share/psi4/basis/6-31pgs.gbs 
    atoms 2-3 entry H          line    46 file /panfs/jay/groups/28/lever046/lever046/psi4conda/share/psi4/basis/6-31pgs.gbs 

  Reading orbitals from file /scratch.global/lever046/psi4/ps4_h2o_b3lyp_nosmd_opt.h2o.3843167.180.npy, no projection.

  ==> Integral Setup <==

  DFHelper Memory: AOs need 0.001 GiB; user supplied 0.375 GiB. 
  Using in-core AOs.

  ==> MemDFJK: Density-Fitted J/K Matrices <==

    J tasked:                   Yes
    K tasked:                   Yes
    wK tasked:                   No
    OpenMP threads:              16
    Memory [MiB]:               384
    Algorithm:                 Core
    Schwarz Cutoff:           1E-12
    Mask sparsity (%):       0.0000
    Fitting Condition:        1E-10

   => Auxiliary Basis Set <=

  Basis Set: (6-31+G* AUX)
    Blend: HEAVY-AUG-CC-PVDZ-JKFIT
    Number of shells: 46
    Number of basis functions: 151
    Number of Cartesian functions: 151
    Spherical Harmonics?: false
    Max angular momentum: 3

  Cached 100.0% of DFT collocation blocks in 0.044 [GiB].

  Minimum eigenvalue in the overlap matrix is 2.1990814701E-02.
  Reciprocal condition number of the overlap matrix is 4.2955632429E-03.
    Using symmetric orthogonalization.

  ==> Pre-Iterations <==

  SCF Guess: Orbitals guess was supplied from a previous computation.

   -------------------------------------------------------
    Irrep   Nso     Nmo     Nalpha   Nbeta   Ndocc  Nsocc
   -------------------------------------------------------
     A'        18      18       4       4       4       0
     A"         5       5       1       1       1       0
   -------------------------------------------------------
    Total      23      23       5       5       5       0
   -------------------------------------------------------

  ==> Iterations <==

                           Total Energy        Delta E     RMS |[F,P]|

   @DF-RKS iter   0:   -76.36622046889187   -7.63662e+01   3.06839e-02 
   @DF-RKS iter   1:   -76.39431097629955   -2.80905e-02   7.16184e-03 DIIS/ADIIS
   @DF-RKS iter   2:   -76.39722998777705   -2.91901e-03   6.35301e-03 DIIS/ADIIS
   @DF-RKS iter   3:   -76.40194309035195   -4.71310e-03   2.90224e-03 DIIS/ADIIS
   @DF-RKS iter   4:   -76.40304634704994   -1.10326e-03   1.03706e-04 DIIS/ADIIS
   @DF-RKS iter   5:   -76.40304797476558   -1.62772e-06   1.01321e-05 DIIS
   @DF-RKS iter   6:   -76.40304799088386   -1.61183e-08   8.09078e-07 DIIS
   @DF-RKS iter   7:   -76.40304799100943   -1.25567e-10   1.79084e-07 DIIS
   @DF-RKS iter   8:   -76.40304799101473   -5.30065e-12   3.90489e-09 DIIS
  Energy and wave function converged.


  ==> Post-Iterations <==

   Electrons on quadrature grid:
      Ntotal   =   10.0000002850 ; deviation = 2.850e-07 

    Orbital Energies [Eh]
    ---------------------

    Doubly Occupied:                                                      

       1Ap   -19.189101     2Ap    -0.985733     3Ap    -0.490483  
       4Ap    -0.402207     1App   -0.314209  

    Virtual:                                                              

       5Ap    -0.000046     6Ap     0.085683     2App    0.155518  
       7Ap     0.155699     8Ap     0.173748     9Ap     0.224237  
      10Ap     0.836496    11Ap     0.938540     3App    1.114642  
      12Ap     1.149320    13Ap     1.172513    14Ap     1.303387  
      15Ap     1.717124     4App    1.749339     5App    1.767200  
      16Ap     2.133440    17Ap     2.417567    18Ap     3.637638  

    Final Occupation by Irrep:
             Ap   App 
[...]
  Nalpha       = 5
  Nbeta        = 5

  ==> Algorithm <==

  SCF Algorithm Type is DF.
  DIIS enabled.
  MOM disabled.
  Fractional occupation disabled.
  Guess Type is SAD.
  Energy threshold   = 1.00e-08
  Density threshold  = 1.00e-08
  Integral threshold = 1.00e-12

  ==> Primary Basis <==

  Basis Set: 6-31+G*
    Blend: 6-31+G*
    Number of shells: 12
    Number of basis functions: 23
    Number of Cartesian functions: 23
    Spherical Harmonics?: false
    Max angular momentum: 2

  ==> DFT Potential <==

   => LibXC <=

    Version 6.2.2
    S. Lehtola, C. Steigemann, M. J.T. Oliveira, and M. A.L. Marques.,  SoftwareX 7, 1–5 (2018) (10.1016/j.softx.2017.11.002)

   => Composite Functional: B3LYP <= 

    B3LYP Hyb-GGA Exchange-Correlation Functional

    P. J. Stephens, F. J. Devlin, C. F. Chabalowski, and M. J. Frisch.,  J. Phys. Chem. 98, 11623 (1994) (10.1021/j100096a001)

    Deriv               =              1
    GGA                 =           TRUE
    Meta                =          FALSE

    Exchange Hybrid     =           TRUE
    MP2 Hybrid          =          FALSE

   => Exchange Functionals <=

    0.0800   Slater exchange
    0.7200         Becke 88

   => Exact (HF) Exchange <=

    0.2000               HF 

   => Correlation Functionals <=

    0.1900   Vosko, Wilk & Nusair (VWN5_RPA)
    0.8100   Lee, Yang & Parr

   => LibXC Density Thresholds  <==

    XC_HYB_GGA_XC_B3LYP:  1.00E-15 

   => Molecular Quadrature <=

    Radial Scheme          =       TREUTLER
    Pruning Scheme         =           NONE
    Nuclear Scheme         =       TREUTLER

    Blocking Scheme        =         OCTREE
    BS radius alpha        =              1
    Pruning alpha          =              1
    Radial Points          =             75
    Spherical Points       =            302
    Total Points           =          66533
    Total Blocks           =            559
    Max Points             =            256
    Max Functions          =             23
    Weights Tolerance      =       1.00E-15

   => Loading Basis Set <=

    Name: (6-31+G* AUX)
    Role: JKFIT
    Keyword: DF_BASIS_SCF
    atoms 1   entry O          line   310 file /panfs/jay/groups/28/lever046/lever046/psi4conda/share/psi4/basis/heavy-aug-cc-pvdz-jkfit.gbs 
    atoms 2-3 entry H          line   116 file /panfs/jay/groups/28/lever046/lever046/psi4conda/share/psi4/basis/heavy-aug-cc-pvdz-jkfit.gbs 

  ==> Integral Setup <==

  DFHelper Memory: AOs need 0.001 GiB; user supplied 0.375 GiB. 
  Using in-core AOs.

  ==> MemDFJK: Density-Fitted J/K Matrices <==

    J tasked:                   Yes
    K tasked:                   Yes
    wK tasked:                   No
    OpenMP threads:              16
    Memory [MiB]:               383
    Algorithm:                 Core
    Schwarz Cutoff:           1E-12
    Mask sparsity (%):       0.0000
    Fitting Condition:        1E-10

   => Auxiliary Basis Set <=

  Basis Set: (6-31+G* AUX)
    Blend: HEAVY-AUG-CC-PVDZ-JKFIT
    Number of shells: 46
    Number of basis functions: 151
    Number of Cartesian functions: 151
    Spherical Harmonics?: false
    Max angular momentum: 3

  Cached 100.0% of DFT collocation blocks in 0.044 [GiB].

  Minimum eigenvalue in the overlap matrix is 1.8162299182E-02.
  Reciprocal condition number of the overlap matrix is 3.4112845316E-03.
    Using symmetric orthogonalization.

  ==> Pre-Iterations <==

  SCF Guess: Superposition of Atomic Densities via on-the-fly atomic UHF (no occupation information).

   -------------------------
    Irrep   Nso     Nmo    
   -------------------------
     A         23      23 
   -------------------------
    Total      23      23
   -------------------------

  ==> Iterations <==

                           Total Energy        Delta E     RMS |[F,P]|

   @DF-RKS iter SAD:   -76.10482751991138   -7.61048e+01   0.00000e+00 
   @DF-RKS iter   1:   -76.25465812012946   -1.49831e-01   2.90005e-02 DIIS/ADIIS
   @DF-RKS iter   2:   -75.88501531300973    3.69643e-01   5.03714e-02 DIIS/ADIIS
   @DF-RKS iter   3:   -76.41855560389203   -5.33540e-01   4.75320e-03 DIIS/ADIIS
   @DF-RKS iter   4:   -76.42257271066013   -4.01711e-03   9.43853e-05 DIIS
   @DF-RKS iter   5:   -76.42257419616632   -1.48551e-06   3.98282e-05 DIIS
   @DF-RKS iter   6:   -76.42257450447354   -3.08307e-07   1.24886e-06 DIIS
   @DF-RKS iter   7:   -76.42257450482633   -3.52784e-10   6.78129e-08 DIIS
   @DF-RKS iter   8:   -76.42257450482734   -1.00897e-12   5.31562e-09 DIIS
  Energy and wave function converged.


  ==> Post-Iterations <==

   Electrons on quadrature grid:
      Ntotal   =   10.0000000623 ; deviation = 6.234e-08 

    Orbital Energies [Eh]
    ---------------------

    Doubly Occupied:                                                      

       1A    -19.168927     2A     -1.022336     3A     -0.543600  
       4A     -0.394912     5A     -0.319268  

    Virtual:                                                              

       6A      0.024912     7A      0.113454     8A      0.155475  
       9A      0.155573    10A      0.203715    11A      0.239483  
      12A      0.947174    13A      1.032040    14A      1.111641  
      15A      1.113810    16A      1.143727    17A      1.243512  
      18A      1.712485    19A      1.720927    20A      1.758403  
      21A      2.271159    22A      2.636585    23A      3.674877  

    Final Occupation by Irrep:
              A 
    DOCC [     5 ]
    NA   [     5 ]
    NB   [     5 ]

  @DF-RKS Final Energy:   -76.42257450482734

   => Energetics <=

    Nuclear Repulsion Energy =              9.0827200907792847
    One-Electron Energy =                -122.7088430418935445
    Two-Electron Energy =                  44.7286708464562750
    DFT Exchange-Correlation Energy =      -7.5251224001693640
    Empirical Dispersion Energy =           0.0000000000000000
    VV10 Nonlocal Energy =                  0.0000000000000000
    Total Energy =                        -76.4225745048273524

Computation Completed


Properties will be evaluated at   0.000000,   0.000000,   0.000000 [a0]

Properties computed using the SCF density matrix


 Multipole Moments:

 ------------------------------------------------------------------------------------
     Multipole            Electronic (a.u.)      Nuclear  (a.u.)        Total (a.u.)
 ------------------------------------------------------------------------------------

 L = 1.  Multiply by 2.5417464519 to convert [e a0] to [Debye]
 Dipole X            :          0.0897288           -0.9603706           -0.8706419
 Dipole Y            :          0.0163515           -0.1743693           -0.1580179
 Dipole Z            :         -0.0000001            0.0000000           -0.0000001
 Magnitude           :                                                    0.8848655

 ------------------------------------------------------------------------------------

*** tstop() called on cn0570 at Mon May 13 14:08:14 2024
Module time:
	user time   =       8.47 seconds =       0.14 minutes
	system time =       0.85 seconds =       0.01 minutes
	total time  =          0 seconds =       0.00 minutes
Total time:
	user time   =     329.41 seconds =       5.49 minutes
	system time =      34.65 seconds =       0.58 minutes
	total time  =         29 seconds =       0.48 minutes

*** tstart() called on cn0570
*** at Mon May 13 14:08:14 2024


         ------------------------------------------------------------
                                   SCF GRAD                          
                          Rob Parrish, Justin Turney,                
                       Andy Simmonett, and Alex Sokolov              
         ------------------------------------------------------------

  ==> Geometry <==

    Molecular point group: c1
    Full point group: C1

    Geometry (in Bohr), charge = 0, multiplicity = 1:

       Center              X                  Y                   Z               Mass       
    ------------   -----------------  -----------------  -----------------  -----------------
         O            0.122018054014     0.022154160985     0.000000000000    15.994914619570
         H           -1.228317006479     1.258105861562    -0.003521781729     1.007825032230
         H           -0.708198056732    -1.609708473223     0.003521781729     1.007825032230

  Nuclear repulsion =    9.082720090779285

  ==> Basis Set <==

  Basis Set: 6-31+G*
    Blend: 6-31+G*
    Number of shells: 12
    Number of basis functions: 23
    Number of Cartesian functions: 23
    Spherical Harmonics?: false
    Max angular momentum: 2

  ==> DFJKGrad: Density-Fitted SCF Gradients <==

    Gradient:                    1
    J tasked:                  Yes
    K tasked:                  Yes
    wK tasked:                  No
    OpenMP threads:             16
    Integrals threads:          16
    Memory [MiB]:              429
    Schwarz Cutoff:          1E-12
    Fitting Condition:       1E-10

   => Auxiliary Basis Set <=

  Basis Set: (6-31+G* AUX)
    Blend: HEAVY-AUG-CC-PVDZ-JKFIT
    Number of shells: 46
    Number of basis functions: 151
    Number of Cartesian functions: 151
    Spherical Harmonics?: false
    Max angular momentum: 3

  ==> DFT Potential <==

   => LibXC <=

    Version 6.2.2
    S. Lehtola, C. Steigemann, M. J.T. Oliveira, and M. A.L. Marques.,  SoftwareX 7, 1–5 (2018) (10.1016/j.softx.2017.11.002)

   => Composite Functional: B3LYP <= 

    B3LYP Hyb-GGA Exchange-Correlation Functional

    P. J. Stephens, F. J. Devlin, C. F. Chabalowski, and M. J. Frisch.,  J. Phys. Chem. 98, 11623 (1994) (10.1021/j100096a001)

    Deriv               =              1
    GGA                 =           TRUE
    Meta                =          FALSE

    Exchange Hybrid     =           TRUE
    MP2 Hybrid          =          FALSE

   => Exchange Functionals <=

    0.0800   Slater exchange
    0.7200         Becke 88

   => Exact (HF) Exchange <=

    0.2000               HF 

   => Correlation Functionals <=

    0.1900   Vosko, Wilk & Nusair (VWN5_RPA)
    0.8100   Lee, Yang & Parr

   => LibXC Density Thresholds  <==

    XC_HYB_GGA_XC_B3LYP:  1.00E-15 

   => Molecular Quadrature <=

    Radial Scheme          =       TREUTLER
    Pruning Scheme         =           NONE
    Nuclear Scheme         =       TREUTLER

    Blocking Scheme        =         OCTREE
    BS radius alpha        =              1
    Pruning alpha          =              1
    Radial Points          =             75
    Spherical Points       =            302
    Total Points           =          66533
    Total Blocks           =            559
    Max Points             =            256
    Max Functions          =             23
    Weights Tolerance      =       1.00E-15


  -Total Gradient:
     Atom            X                  Y                   Z
    ------   -----------------  -----------------  -----------------
       1       -0.000185947677     0.000112167976    -0.000000346988
       2        0.000167445419    -0.000134607236     0.000000392355
       3        0.000027722725     0.000024158942    -0.000000045476


*** tstop() called on cn0570 at Mon May 13 14:08:14 2024
Module time:
	user time   =       2.33 seconds =       0.04 minutes
	system time =       0.27 seconds =       0.00 minutes
	total time  =          0 seconds =       0.00 minutes
Total time:
	user time   =     331.77 seconds =       5.53 minutes
	system time =      34.92 seconds =       0.58 minutes
	total time  =         29 seconds =       0.48 minutes

    Psi4 stopped on: Monday, 13 May 2024 02:08PM
    Psi4 wall time for execution: 0:00:00.86


  //>>>>>>>>>>>>>>>>>>>>>>>>>>>>>>>>>>>//
  //      FiniteDifference Results     //
  //<<<<<<<<<<<<<<<<<<<<<<<<<<<<<<<<<<<//

  Computing second-derivative from gradients using projected, 
  symmetry-adapted, cartesian coordinates.

  11 gradients passed in, including the reference geometry.
  Generating complete list of displacements from unique ones.

    Operation 2 takes plus displacements of irrep A" to minus ones.

-------------------------------------------------------------


  ==> Harmonic Vibrational Analysis <==

  non-mass-weighted Hessian:       Symmetric? True   Hermitian? True   Lin Dep Dim?  3 (0)
  projection of translations (True) and rotations (True) removed 6 degrees of freedom (6)
  total projector:                 Symmetric? True   Hermitian? True   Lin Dep Dim?  6 (6)
  mass-weighted Hessian:           Symmetric? True   Hermitian? True   Lin Dep Dim?  3 (0)
  pre-proj  low-frequency mode:    0.0000i [cm^-1]
  pre-proj  low-frequency mode:    0.0000i [cm^-1]
  pre-proj  low-frequency mode:    0.0000i [cm^-1]
  pre-proj  low-frequency mode:    0.0000i [cm^-1]
  pre-proj  low-frequency mode:    0.0000i [cm^-1]
  pre-proj  low-frequency mode:    0.0000  [cm^-1]
  pre-proj  all modes:['57.9196i' '44.2876i' '23.2655i' '0.0001i' '0.0000i' '0.0000' '1662.3319'
 '3737.8292' '3862.2622']
  projected mass-weighted Hessian: Symmetric? True   Hermitian? True   Lin Dep Dim?  6 (6)
  post-proj low-frequency mode:    0.0001i [cm^-1] (TR)
  post-proj low-frequency mode:    0.0000i [cm^-1] (TR)
  post-proj low-frequency mode:    0.0000i [cm^-1] (TR)
  post-proj low-frequency mode:    0.0000i [cm^-1] (TR)
  post-proj low-frequency mode:    0.0000  [cm^-1] (TR)
  post-proj low-frequency mode:    0.0000  [cm^-1] (TR)
  post-proj  all modes:['0.0001i' '0.0000i' '0.0000i' '0.0000i' '0.0000' '0.0000' '1662.3317'
 '3737.8292' '3862.2622']

  Vibration                       7                   8                   9           
  Freq [cm^-1]                1662.3317           3737.8292           3862.2622       
  Irrep                           Ap                  Ap                  Ap          
  Reduced mass [u]              1.0834              1.0445              1.0828        
  Force const [mDyne/A]         1.7639              8.5978              9.5170        
  Turning point v=0 [a0]        0.2586              0.1756              0.1697        
  RMS dev v=0 [a0 u^1/2]        0.1903              0.1269              0.1248        
  IR activ [km/mol]            97.3855              6.0595             52.9852        
  Char temp [K]               2391.7251           5377.9041           5556.9354       
  ----------------------------------------------------------------------------------
      1   O               -0.07 -0.01  0.00   -0.05 -0.01  0.00    0.01 -0.07  0.00   
      2   H                0.48  0.52 -0.00    0.49 -0.50  0.00   -0.53  0.48 -0.00   
      3   H                0.63 -0.32  0.00    0.28  0.65 -0.00    0.32  0.62  0.00   

  ==> Thermochemistry Components <==

  Entropy, S
    Electronic S                             0.000 [cal/(mol K)]        0.000 [J/(mol K)]       0.00000000 [mEh/K] (multiplicity = 1)
    Translational S                         34.608 [cal/(mol K)]      144.801 [J/(mol K)]       0.05515177 [mEh/K] (mol. weight = 18.0106 [u], P = 101325.00 [Pa])
    Rotational S                            11.887 [cal/(mol K)]       49.734 [J/(mol K)]       0.01894278 [mEh/K] (symmetry no. = 1)
    Vibrational S                            0.006 [cal/(mol K)]        0.025 [J/(mol K)]       0.00000938 [mEh/K]
  Total S                                   46.501 [cal/(mol K)]      194.560 [J/(mol K)]       0.07410393 [mEh/K]
  Correction S                               0.000 [cal/(mol K)]        0.000 [J/(mol K)]       0.00000000 [mEh/K]

  Constant volume heat capacity, Cv
    Electronic Cv                            0.000 [cal/(mol K)]        0.000 [J/(mol K)]       0.00000000 [mEh/K]
    Translational Cv                         2.981 [cal/(mol K)]       12.472 [J/(mol K)]       0.00475022 [mEh/K]
    Rotational Cv                            2.981 [cal/(mol K)]       12.472 [J/(mol K)]       0.00475022 [mEh/K]
    Vibrational Cv                           0.042 [cal/(mol K)]        0.176 [J/(mol K)]       0.00006695 [mEh/K]
  Total Cv                                   6.004 [cal/(mol K)]       25.119 [J/(mol K)]       0.00956738 [mEh/K]
  Correction Cv                              0.000 [cal/(mol K)]        0.000 [J/(mol K)]       0.00000000 [mEh/K]

  Constant pressure heat capacity, Cp
    Electronic Cp                            0.000 [cal/(mol K)]        0.000 [J/(mol K)]       0.00000000 [mEh/K]
    Translational Cp                         4.968 [cal/(mol K)]       20.786 [J/(mol K)]       0.00791703 [mEh/K]
    Rotational Cp                            2.981 [cal/(mol K)]       12.472 [J/(mol K)]       0.00475022 [mEh/K]
    Vibrational Cp                           0.042 [cal/(mol K)]        0.176 [J/(mol K)]       0.00006695 [mEh/K]
  Total Cp                                   7.991 [cal/(mol K)]       33.434 [J/(mol K)]       0.01273419 [mEh/K]
  Correction Cp                              0.000 [cal/(mol K)]        0.000 [J/(mol K)]       0.00000000 [mEh/K]

  ==> Thermochemistry Energy Analysis <==

  Raw electronic energy, E_e
  Total E_e, Electronic energy at well bottom                                           -76.42257450 [Eh]

  Zero-point vibrational energy, ZPVE = Sum_i omega_i / 2,  E_0 = E_e + ZPVE
    Vibrational ZPVE                        13.241 [kcal/mol]       55.402 [kJ/mol]       0.02110135 [Eh]        4631.212 [cm^-1]
  Correction ZPVE to E_e                    13.241 [kcal/mol]       55.402 [kJ/mol]       0.02110135 [Eh]        4631.212 [cm^-1]
  Total E_0, Enthalpy at 0 [K]                                                          -76.40147315 [Eh]
  *** Absolute enthalpy, not an enthalpy of formation ***

  Thermal (internal) energy, E (includes ZPVE and finite-temperature corrections)
    Electronic contrib to E beyond E_e       0.000 [kcal/mol]        0.000 [kJ/mol]       0.00000000 [Eh]
    Translational contrib to E               0.889 [kcal/mol]        3.718 [kJ/mol]       0.00141628 [Eh]
    Rotational contrib to E                  0.889 [kcal/mol]        3.718 [kJ/mol]       0.00141628 [Eh]
    Vibrational contrib to E                13.243 [kcal/mol]       55.408 [kJ/mol]       0.02110384 [Eh]
  Correction E                              15.020 [kcal/mol]       62.845 [kJ/mol]       0.02393639 [Eh]
  Total E, Thermal (internal) energy at  298.15 [K]                                     -76.39863811 [Eh]

  Enthalpy, H_trans = E_trans + k_B * T = E_trans + P * V
    Electronic contrib to H beyond E_e       0.000 [kcal/mol]        0.000 [kJ/mol]       0.00000000 [Eh]
    Translational contrib to H               1.481 [kcal/mol]        6.197 [kJ/mol]       0.00236046 [Eh]
    Rotational contrib to H                  0.889 [kcal/mol]        3.718 [kJ/mol]       0.00141628 [Eh]
    Vibrational contrib to H                13.243 [kcal/mol]       55.408 [kJ/mol]       0.02110384 [Eh]
  Correction H                              15.613 [kcal/mol]       65.324 [kJ/mol]       0.02488058 [Eh]
  Total H, Enthalpy at  298.15 [K]                                                      -76.39769393 [Eh]
  *** Absolute enthalpy, not an enthalpy of formation ***

  Gibbs free energy, G = H - T * S
    Electronic contrib to G beyond E_e       0.000 [kcal/mol]        0.000 [kJ/mol]       0.00000000 [Eh]
    Translational contrib to G              -8.837 [kcal/mol]      -36.975 [kJ/mol]      -0.01408304 [Eh]
    Rotational contrib to G                 -2.655 [kcal/mol]      -11.110 [kJ/mol]      -0.00423151 [Eh]
    Vibrational contrib to G                13.241 [kcal/mol]       55.401 [kJ/mol]       0.02110104 [Eh]
  Correction G                               1.749 [kcal/mol]        7.316 [kJ/mol]       0.00278649 [Eh]
  Total G, Gibbs energy at  298.15 [K]                                                  -76.41978801 [Eh]
  *** Absolute Gibbs energy, not a free energy of formation ***


    Psi4 stopped on: Monday, 13 May 2024 02:08PM
    Psi4 wall time for execution: 0:00:30.87

*** Psi4 exiting successfully. Buy a developer a beer!
