
    -----------------------------------------------------------------------
          Psi4: An Open-Source Ab Initio Electronic Structure Package
                               Psi4 1.9.1 release

                         Git: Rev {} zzzzzzz 


    D. G. A. Smith, L. A. Burns, A. C. Simmonett, R. M. Parrish,
    M. C. Schieber, R. Galvelis, P. Kraus, H. Kruse, R. Di Remigio,
    A. Alenaizan, A. M. James, S. Lehtola, J. P. Misiewicz, M. Scheurer,
    R. A. Shaw, J. B. Schriber, Y. Xie, Z. L. Glick, D. A. Sirianni,
    J. S. O'Brien, J. M. Waldrop, A. Kumar, E. G. Hohenstein,
    B. P. Pritchard, B. R. Brooks, H. F. Schaefer III, A. Yu. Sokolov,
    K. Patkowski, A. E. DePrince III, U. Bozkaya, R. A. King,
    F. A. Evangelista, J. M. Turney, T. D. Crawford, C. D. Sherrill,
    J. Chem. Phys. 152(18) 184108 (2020). https://doi.org/10.1063/5.0006002

                            Additional Code Authors
    E. T. Seidl, C. L. Janssen, E. F. Valeev, M. L. Leininger,
    J. F. Gonthier, R. M. Richard, H. R. McAlexander, M. Saitow, X. Wang,
    P. Verma, M. H. Lechner, A. Jiang, S. Behnle, A. G. Heide,
    M. F. Herbst, and D. L. Poole

             Previous Authors, Complete List of Code Contributors,
                       and Citations for Specific Modules
    https://github.com/psi4/psi4/blob/master/codemeta.json
    https://github.com/psi4/psi4/graphs/contributors
    http://psicode.org/psi4manual/master/introduction.html#citing-psifour

    -----------------------------------------------------------------------


    Psi4 started on: Tuesday, 30 April 2024 05:40PM

    Process ID: 2691793
    Host:       cn0050
    PSIDATADIR: /panfs/jay/groups/28/lever046/lever046/psi4conda/share/psi4
    Memory:     500.0 MiB
    Threads:    8
    
  ==> Input File <==

--------------------------------------------------------------------------
# Any line starting with the # character is a comment line
#! Sample HF/6-31+G* H2O computation

memory 600mb

molecule h2o {
   0 1
   O       2.2186344E-01  6.4623884E-02  0.0000000E+00                      
   H      -1.0869454E+00  1.3371949E+00  0.0000000E+00                      
   H      -6.8796211E-01 -1.8541860E+00  0.0000000E+00
}

set basis 6-31+G*
optimize('scf')
freq('scf')
--------------------------------------------------------------------------

  Memory set to 572.205 MiB by Python driver.

Scratch directory: /scratch.global/lever046/psi4/
gradient() will perform analytic gradient computation.
   => Libint2 <=

    Primary   basis highest AM E, G, H:  5, 4, 3
    Auxiliary basis highest AM E, G, H:  6, 5, 4
    Onebody   basis highest AM E, G, H:  6, 5, 4
    Solid Harmonics ordering:            Gaussian

*** tstart() called on cn0050
*** at Tue Apr 30 17:41:05 2024

   => Loading Basis Set <=

    Name: 6-31+G*
    Role: ORBITAL
    Keyword: BASIS
    atoms 1   entry O          line   157 file /panfs/jay/groups/28/lever046/lever046/psi4conda/share/psi4/basis/6-31pgs.gbs 
    atoms 2-3 entry H          line    46 file /panfs/jay/groups/28/lever046/lever046/psi4conda/share/psi4/basis/6-31pgs.gbs 


         ---------------------------------------------------------
                                   SCF
               by Justin Turney, Rob Parrish, Andy Simmonett
                          and Daniel G. A. Smith
                              RHF Reference
                        8 Threads,    572 MiB Core
         ---------------------------------------------------------

  ==> Geometry <==

    Molecular point group: cs
    Full point group: Cs

    Geometry (in Angstrom), charge = 0, multiplicity = 1:

       Center              X                  Y                   Z               Mass       
    ------------   -----------------  -----------------  -----------------  -----------------
         O            0.124149093315     0.036161870513     0.000000000000    15.994914619570
         H           -1.184659746685     1.308732886513     0.000000000000     1.007825032230
         H           -0.785676456685    -1.882648013487     0.000000000000     1.007825032230

  Running in cs symmetry.

  Rotational constants: A =      7.38383  B =      3.16920  C =      2.21745 [cm^-1]
  Rotational constants: A = 221361.54641  B =  95010.36145  C =  66477.58544 [MHz]
  Nuclear repulsion =    4.477114475495696

  Charge       = 0
  Multiplicity = 1
  Electrons    = 10
  Nalpha       = 5
  Nbeta        = 5

  ==> Algorithm <==

  SCF Algorithm Type is DF.
  DIIS enabled.
  MOM disabled.
  Fractional occupation disabled.
  Guess Type is SAD.
  Energy threshold   = 1.00e-08
  Density threshold  = 1.00e-08
  Integral threshold = 1.00e-12

  ==> Primary Basis <==

  Basis Set: 6-31+G*
    Blend: 6-31+G*
    Number of shells: 12
    Number of basis functions: 23
    Number of Cartesian functions: 23
    Spherical Harmonics?: false
    Max angular momentum: 2

   => Loading Basis Set <=

    Name: (6-31+G* AUX)
    Role: JKFIT
    Keyword: DF_BASIS_SCF
    atoms 1   entry O          line   310 file /panfs/jay/groups/28/lever046/lever046/psi4conda/share/psi4/basis/heavy-aug-cc-pvdz-jkfit.gbs 
    atoms 2-3 entry H          line   116 file /panfs/jay/groups/28/lever046/lever046/psi4conda/share/psi4/basis/heavy-aug-cc-pvdz-jkfit.gbs 

  ==> Integral Setup <==

  DFHelper Memory: AOs need 0.001 GiB; user supplied 0.419 GiB. 
  Using in-core AOs.

  ==> MemDFJK: Density-Fitted J/K Matrices <==

    J tasked:                   Yes
    K tasked:                   Yes
    wK tasked:                   No
    OpenMP threads:               8
    Memory [MiB]:               429
    Algorithm:                 Core
    Schwarz Cutoff:           1E-12
    Mask sparsity (%):       0.0000
    Fitting Condition:        1E-10

   => Auxiliary Basis Set <=

  Basis Set: (6-31+G* AUX)
    Blend: HEAVY-AUG-CC-PVDZ-JKFIT
    Number of shells: 46
    Number of basis functions: 151
    Number of Cartesian functions: 151
    Spherical Harmonics?: false
    Max angular momentum: 3

  Minimum eigenvalue in the overlap matrix is 2.1683340939E-02.
  Reciprocal condition number of the overlap matrix is 5.4336273063E-03.
    Using symmetric orthogonalization.

  ==> Pre-Iterations <==

  SCF Guess: Superposition of Atomic Densities via on-the-fly atomic UHF (no occupation information).

   -------------------------
    Irrep   Nso     Nmo    
   -------------------------
     A'        18      18 
     A"         5       5 
   -------------------------
    Total      23      23
   -------------------------

  ==> Iterations <==

                           Total Energy        Delta E     RMS |[F,P]|

   @DF-RHF iter SAD:   -74.66299153412379   -7.46630e+01   0.00000e+00 
   @DF-RHF iter   1:   -75.18830224093786   -5.25311e-01   4.01636e-02 ADIIS/DIIS
   @DF-RHF iter   2:   -74.35918314128406    8.29119e-01   7.55672e-02 ADIIS/DIIS
   @DF-RHF iter   3:   -75.54517454169476   -1.18599e+00   1.53257e-02 ADIIS/DIIS
   @DF-RHF iter   4:   -75.57896711210417   -3.37926e-02   3.90410e-03 ADIIS/DIIS
   @DF-RHF iter   5:   -75.58191930979787   -2.95220e-03   7.90163e-04 ADIIS/DIIS
   @DF-RHF iter   6:   -75.58210450183766   -1.85192e-04   1.22080e-04 ADIIS/DIIS
   @DF-RHF iter   7:   -75.58210985002215   -5.34818e-06   4.72983e-05 DIIS
   @DF-RHF iter   8:   -75.58211167846855   -1.82845e-06   2.65758e-05 DIIS
   @DF-RHF iter   9:   -75.58211312828411   -1.44982e-06   2.08086e-05 DIIS
   @DF-RHF iter  10:   -75.58211450495105   -1.37667e-06   1.87628e-05 DIIS
   @DF-RHF iter  11:   -75.58211554450541   -1.03955e-06   5.42906e-06 DIIS
   @DF-RHF iter  12:   -75.58211562844360   -8.39382e-08   1.59889e-06 DIIS
   @DF-RHF iter  13:   -75.58211563018676   -1.74316e-09   3.93243e-07 DIIS
   @DF-RHF iter  14:   -75.58211563049760   -3.10834e-10   1.10941e-07 DIIS
   @DF-RHF iter  15:   -75.58211563051442   -1.68257e-11   1.49877e-08 DIIS
   @DF-RHF iter  16:   -75.58211563051469   -2.70006e-13   2.34320e-09 DIIS
  Energy and wave function converged.


  ==> Post-Iterations <==

    Orbital Energies [Eh]
    ---------------------

    Doubly Occupied:                                                      

       1Ap   -20.681684     2Ap    -1.202562     1App   -0.510529  
       3Ap    -0.449617     4Ap    -0.407951  

    Virtual:                                                              

       5Ap    -0.055280     6Ap     0.007527     7Ap     0.253815  
       2App    0.260393     8Ap     0.307486     9Ap     0.322831  
      10Ap     0.994262    11Ap     1.023305     3App    1.408136  
      12Ap     1.428312    13Ap     1.434841    14Ap     1.472654  
      15Ap     2.100240     4App    2.107685     5App    2.112966  
      16Ap     2.128808    17Ap     2.136900    18Ap     4.064608  

    Final Occupation by Irrep:
             Ap   App 
    DOCC [     4,    1 ]
    NA   [     4,    1 ]
    NB   [     4,    1 ]

  @DF-RHF Final Energy:   -75.58211563051469

   => Energetics <=

    Nuclear Repulsion Energy =              4.4771144754956964
    One-Electron Energy =                -113.6137752804428231
    Two-Electron Energy =                  33.5545451744324410
    Total Energy =                        -75.5821156305146928

Computation Completed


Properties will be evaluated at   0.000000,   0.000000,   0.000000 [a0]

Properties computed using the SCF density matrix


 Multipole Moments:

 ------------------------------------------------------------------------------------
     Multipole            Electronic (a.u.)      Nuclear  (a.u.)        Total (a.u.)
 ------------------------------------------------------------------------------------

 L = 1.  Multiply by 2.5417464519 to convert [e a0] to [Debye]
 Dipole X            :          0.8802985           -1.8465335           -0.9662351
 Dipole Y            :          0.3699966           -0.5378542           -0.1678576
 Dipole Z            :          0.0000000            0.0000000            0.0000000
 Magnitude           :                                                    0.9807071

 ------------------------------------------------------------------------------------

*** tstop() called on cn0050 at Tue Apr 30 17:41:07 2024
Module time:
	user time   =       5.69 seconds =       0.09 minutes
	system time =       0.76 seconds =       0.01 minutes
	total time  =          2 seconds =       0.03 minutes
Total time:
	user time   =       5.69 seconds =       0.09 minutes
	system time =       0.76 seconds =       0.01 minutes
	total time  =          2 seconds =       0.03 minutes

*** tstart() called on cn0050
*** at Tue Apr 30 17:41:07 2024


         ------------------------------------------------------------
                                   SCF GRAD                          
                          Rob Parrish, Justin Turney,                
                       Andy Simmonett, and Alex Sokolov              
         ------------------------------------------------------------

  ==> Geometry <==

    Molecular point group: cs
    Full point group: Cs

    Geometry (in Angstrom), charge = 0, multiplicity = 1:

       Center              X                  Y                   Z               Mass       
    ------------   -----------------  -----------------  -----------------  -----------------
         O            0.124149093315     0.036161870513     0.000000000000    15.994914619570
         H           -1.184659746685     1.308732886513     0.000000000000     1.007825032230
         H           -0.785676456685    -1.882648013487     0.000000000000     1.007825032230

  Nuclear repulsion =    4.477114475495696

  ==> Basis Set <==

  Basis Set: 6-31+G*
    Blend: 6-31+G*
    Number of shells: 12
    Number of basis functions: 23
    Number of Cartesian functions: 23
    Spherical Harmonics?: false
    Max angular momentum: 2

  ==> DFJKGrad: Density-Fitted SCF Gradients <==

    Gradient:                    1
    J tasked:                  Yes
    K tasked:                  Yes
    wK tasked:                  No
    OpenMP threads:              8
    Integrals threads:           8
    Memory [MiB]:              429
    Schwarz Cutoff:          1E-12
    Fitting Condition:       1E-10

   => Auxiliary Basis Set <=

  Basis Set: (6-31+G* AUX)
    Blend: HEAVY-AUG-CC-PVDZ-JKFIT
    Number of shells: 46
    Number of basis functions: 151
    Number of Cartesian functions: 151
    Spherical Harmonics?: false
    Max angular momentum: 3


  -Total Gradient:
     Atom            X                  Y                   Z
    ------   -----------------  -----------------  -----------------
       1        0.102733314309    -0.001729651502     0.000000000000
       2       -0.071872056999     0.076874721834     0.000000000000
       3       -0.030861257310    -0.075145070332     0.000000000000


*** tstop() called on cn0050 at Tue Apr 30 17:41:08 2024
Module time:
	user time   =       0.82 seconds =       0.01 minutes
	system time =       0.18 seconds =       0.00 minutes
	total time  =          1 seconds =       0.02 minutes
Total time:
	user time   =       6.53 seconds =       0.11 minutes
	system time =       0.94 seconds =       0.02 minutes
	total time  =          3 seconds =       0.05 minutes

    			-----------------------------------------

    			 OPTKING 3.0: for geometry optimizations 

    			     By R.A. King, Bethel University     

    			        with contributions from          

    			    A.V. Copan, J. Cayton, A. Heide      

    			-----------------------------------------

    
	                            ===> Fragment 1 <== 

	 Z (Atomic Numbers)          Masses                          Geom                  
	       8.000000            15.994915          0.23460779  0.06833603  0.00000000   
	       1.000000             1.007825         -2.23868247  2.47314673  0.00000000   
	       1.000000             1.007825         -1.48471333 -3.55768914  0.00000000   

	 - Coordinate -           - BOHR/RAD -       - ANG/DEG -
	 R(1,2)           =         3.449678           1.825491
	 R(1,3)           =         4.012994           2.123585
	 B(2,1,3)         =         1.899393         108.827224


	        --- Internal Coordinate Step in ANG or DEG, aJ/ANG or AJ/DEG ---
	-------------------------------------------------------------------------------
	           Coordinate      Previous         Force          Change          New 
	           ----------      --------        ------          ------        ------
	               R(1,2)       1.82549       -0.86605       -0.20156       1.62393
	               R(1,3)       2.12359       -0.66833       -0.16968       1.95390
	             B(2,1,3)     108.82722       -0.00132       -2.62395     106.20328
	-------------------------------------------------------------------------------

	                                 ==> Convergence Check <==                                  
    
	Measures of convergence in internal coordinates in au.
    
	Criteria marked as inactive (o), active & met (*), and active & unmet ( ).

	----------------------------------------------------------------------------------------------
	   Step    Total Energy     Delta E     Max Force     RMS Force      Max Disp      RMS Disp   
	----------------------------------------------------------------------------------------------
	  Convergence Criteria     1.00e-06 *    3.00e-04 *             o    1.20e-03 *             o
	----------------------------------------------------------------------------------------------
	     1     -75.58211563   -7.56e+01      1.05e-01      7.73e-02 o    3.81e-01      2.89e-01 o  ~
	----------------------------------------------------------------------------------------------

Next Geometry in Ang 
	Fragment 1 (Ang)

	    O   0.0714707472   0.0413493325   0.0000000000
	    H  -1.1296493993   1.1342623186   0.0000000000
	    H  -0.7880084579  -1.7133649075   0.0000000000


    Structure for next step:
    Molecular point group: cs
    Full point group: Cs

    Geometry (in Angstrom), charge = 0, multiplicity = 1:

    O            0.115305857673     0.037032701738     0.000000000000
    H           -1.085814288896     1.129945687837     0.000000000000
    H           -0.744173347487    -1.717681538289     0.000000000000


Scratch directory: /scratch.global/lever046/psi4/
gradient() will perform analytic gradient computation.
   => Libint2 <=

    Primary   basis highest AM E, G, H:  5, 4, 3
    Auxiliary basis highest AM E, G, H:  6, 5, 4
    Onebody   basis highest AM E, G, H:  6, 5, 4
    Solid Harmonics ordering:            Gaussian

*** tstart() called on cn0050
*** at Tue Apr 30 17:41:08 2024

   => Loading Basis Set <=

    Name: 6-31+G*
    Role: ORBITAL
    Keyword: BASIS
    atoms 1   entry O          line   157 file /panfs/jay/groups/28/lever046/lever046/psi4conda/share/psi4/basis/6-31pgs.gbs 
    atoms 2-3 entry H          line    46 file /panfs/jay/groups/28/lever046/lever046/psi4conda/share/psi4/basis/6-31pgs.gbs 


         ---------------------------------------------------------
                                   SCF
               by Justin Turney, Rob Parrish, Andy Simmonett
                          and Daniel G. A. Smith
                              RHF Reference
                        8 Threads,    572 MiB Core
         ---------------------------------------------------------

  ==> Geometry <==

    Molecular point group: cs
    Full point group: Cs

    Geometry (in Angstrom), charge = 0, multiplicity = 1:

       Center              X                  Y                   Z               Mass       
    ------------   -----------------  -----------------  -----------------  -----------------
         O            0.115305857673     0.037032701738     0.000000000000    15.994914619570
         H           -1.085814288896     1.129945687837     0.000000000000     1.007825032230
         H           -0.744173347487    -1.717681538289     0.000000000000     1.007825032230

  Running in cs symmetry.

  Rotational constants: A =      8.63246  B =      3.93098  C =      2.70101 [cm^-1]
  Rotational constants: A = 258794.61039  B = 117847.71946  C =  80974.31496 [MHz]
  Nuclear repulsion =    4.958054312321512

  Charge       = 0
  Multiplicity = 1
  Electrons    = 10
  Nalpha       = 5
  Nbeta        = 5

  ==> Algorithm <==

  SCF Algorithm Type is DF.
  DIIS enabled.
  MOM disabled.
  Fractional occupation disabled.
  Guess Type is READ.
  Energy threshold   = 1.00e-08
  Density threshold  = 1.00e-08
  Integral threshold = 1.00e-12

  ==> Primary Basis <==

  Basis Set: 6-31+G*
    Blend: 6-31+G*
    Number of shells: 12
    Number of basis functions: 23
    Number of Cartesian functions: 23
    Spherical Harmonics?: false
    Max angular momentum: 2

   => Loading Basis Set <=

    Name: (6-31+G* AUX)
    Role: JKFIT
    Keyword: DF_BASIS_SCF
    atoms 1   entry O          line   310 file /panfs/jay/groups/28/lever046/lever046/psi4conda/share/psi4/basis/heavy-aug-cc-pvdz-jkfit.gbs 
    atoms 2-3 entry H          line   116 file /panfs/jay/groups/28/lever046/lever046/psi4conda/share/psi4/basis/heavy-aug-cc-pvdz-jkfit.gbs 

   => Loading Basis Set <=

    Name: 6-31+G*
    Role: ORBITAL
    Keyword: BASIS
    atoms 1   entry O          line   157 file /panfs/jay/groups/28/lever046/lever046/psi4conda/share/psi4/basis/6-31pgs.gbs 
    atoms 2-3 entry H          line    46 file /panfs/jay/groups/28/lever046/lever046/psi4conda/share/psi4/basis/6-31pgs.gbs 

  Reading orbitals from file /scratch.global/lever046/psi4/ps4_h2o_hf_nosmd_opt.h2o.2691793.180.npy, no projection.

  ==> Integral Setup <==

  DFHelper Memory: AOs need 0.001 GiB; user supplied 0.419 GiB. 
  Using in-core AOs.

  ==> MemDFJK: Density-Fitted J/K Matrices <==

    J tasked:                   Yes
    K tasked:                   Yes
    wK tasked:                   No
    OpenMP threads:               8
    Memory [MiB]:               429
    Algorithm:                 Core
    Schwarz Cutoff:           1E-12
    Mask sparsity (%):       0.0000
    Fitting Condition:        1E-10

   => Auxiliary Basis Set <=

  Basis Set: (6-31+G* AUX)
    Blend: HEAVY-AUG-CC-PVDZ-JKFIT
    Number of shells: 46
    Number of basis functions: 151
    Number of Cartesian functions: 151
    Spherical Harmonics?: false
    Max angular momentum: 3

  Minimum eigenvalue in the overlap matrix is 2.1427267097E-02.
  Reciprocal condition number of the overlap matrix is 5.1988895663E-03.
    Using symmetric orthogonalization.

  ==> Pre-Iterations <==

  SCF Guess: Orbitals guess was supplied from a previous computation.

   -------------------------------------------------------
    Irrep   Nso     Nmo     Nalpha   Nbeta   Ndocc  Nsocc
   -------------------------------------------------------
     A'        18      18       4       4       4       0
     A"         5       5       1       1       1       0
   -------------------------------------------------------
    Total      23      23       5       5       5       0
   -------------------------------------------------------

  ==> Iterations <==

                           Total Energy        Delta E     RMS |[F,P]|

   @DF-RHF iter   0:   -75.72752888107063   -7.57275e+01   6.09668e-03 
   @DF-RHF iter   1:   -75.65348899175603    7.40399e-02   1.96839e-03 ADIIS/DIIS
   @DF-RHF iter   2:   -75.65362206313458   -1.33071e-04   2.21234e-03 ADIIS/DIIS
   @DF-RHF iter   3:   -75.65433112260376   -7.09059e-04   2.50205e-04 ADIIS/DIIS
   @DF-RHF iter   4:   -75.65435466400636   -2.35414e-05   1.10588e-04 ADIIS/DIIS
   @DF-RHF iter   5:   -75.65436074697257   -6.08297e-06   3.46409e-05 DIIS
   @DF-RHF iter   6:   -75.65436261704434   -1.87007e-06   2.09032e-05 DIIS
   @DF-RHF iter   7:   -75.65436378621436   -1.16917e-06   1.11651e-05 DIIS
   @DF-RHF iter   8:   -75.65436412497490   -3.38761e-07   2.62503e-06 DIIS
   @DF-RHF iter   9:   -75.65436413942929   -1.44544e-08   8.70616e-07 DIIS
   @DF-RHF iter  10:   -75.65436413999517   -5.65876e-10   2.55349e-07 DIIS
   @DF-RHF iter  11:   -75.65436414006062   -6.54552e-11   2.15825e-08 DIIS
   @DF-RHF iter  12:   -75.65436414006092   -2.98428e-13   5.90218e-09 DIIS
  Energy and wave function converged.


  ==> Post-Iterations <==

    Orbital Energies [Eh]
    ---------------------

    Doubly Occupied:                                                      

       1Ap   -20.675052     2Ap    -1.208041     1App   -0.507955  
       3Ap    -0.482768     4Ap    -0.426763  

    Virtual:                                                              

       5Ap    -0.026942     6Ap     0.050902     7Ap     0.256315  
       2App    0.258164     8Ap     0.294556     9Ap     0.324170  
      10Ap     0.968933    11Ap     1.022274     3App    1.407565  
      12Ap     1.433230    13Ap     1.446659    14Ap     1.545171  
      15Ap     2.095315     4App    2.104139     5App    2.111536  
      16Ap     2.133572    17Ap     2.155179    18Ap     4.071912  

    Final Occupation by Irrep:
             Ap   App 
    DOCC [     4,    1 ]
    NA   [     4,    1 ]
    NB   [     4,    1 ]

  @DF-RHF Final Energy:   -75.65436414006092

   => Energetics <=

    Nuclear Repulsion Energy =              4.9580543123215115
    One-Electron Energy =                -114.6236795045626593
    Two-Electron Energy =                  34.0112610521802310
    Total Energy =                        -75.6543641400609204

Computation Completed


Properties will be evaluated at   0.000000,   0.000000,   0.000000 [a0]

Properties computed using the SCF density matrix


 Multipole Moments:

 ------------------------------------------------------------------------------------
     Multipole            Electronic (a.u.)      Nuclear  (a.u.)        Total (a.u.)
 ------------------------------------------------------------------------------------

 L = 1.  Multiply by 2.5417464519 to convert [e a0] to [Debye]
 Dipole X            :          0.7506833           -1.7150035           -0.9643203
 Dipole Y            :          0.3797292           -0.5508065           -0.1710773
 Dipole Z            :          0.0000000            0.0000000            0.0000000
 Magnitude           :                                                    0.9793779

 ------------------------------------------------------------------------------------

*** tstop() called on cn0050 at Tue Apr 30 17:41:08 2024
Module time:
	user time   =       2.09 seconds =       0.03 minutes
	system time =       0.19 seconds =       0.00 minutes
	total time  =          0 seconds =       0.00 minutes
Total time:
	user time   =       9.19 seconds =       0.15 minutes
	system time =       1.19 seconds =       0.02 minutes
	total time  =          3 seconds =       0.05 minutes

*** tstart() called on cn0050
*** at Tue Apr 30 17:41:08 2024


         ------------------------------------------------------------
                                   SCF GRAD                          
                          Rob Parrish, Justin Turney,                
                       Andy Simmonett, and Alex Sokolov              
         ------------------------------------------------------------

  ==> Geometry <==

    Molecular point group: cs
    Full point group: Cs

    Geometry (in Angstrom), charge = 0, multiplicity = 1:

       Center              X                  Y                   Z               Mass       
    ------------   -----------------  -----------------  -----------------  -----------------
         O            0.115305857673     0.037032701738     0.000000000000    15.994914619570
         H           -1.085814288896     1.129945687837     0.000000000000     1.007825032230
         H           -0.744173347487    -1.717681538289     0.000000000000     1.007825032230

  Nuclear repulsion =    4.958054312321512

  ==> Basis Set <==

  Basis Set: 6-31+G*
    Blend: 6-31+G*
    Number of shells: 12
    Number of basis functions: 23
    Number of Cartesian functions: 23
    Spherical Harmonics?: false
    Max angular momentum: 2

  ==> DFJKGrad: Density-Fitted SCF Gradients <==

    Gradient:                    1
    J tasked:                  Yes
    K tasked:                  Yes
    wK tasked:                  No
    OpenMP threads:              8
    Integrals threads:           8
    Memory [MiB]:              429
    Schwarz Cutoff:          1E-12
    Fitting Condition:       1E-10

   => Auxiliary Basis Set <=

  Basis Set: (6-31+G* AUX)
    Blend: HEAVY-AUG-CC-PVDZ-JKFIT
    Number of shells: 46
    Number of basis functions: 151
    Number of Cartesian functions: 151
    Spherical Harmonics?: false
    Max angular momentum: 3


  -Total Gradient:
     Atom            X                  Y                   Z
    ------   -----------------  -----------------  -----------------
       1        0.123324475722    -0.000006265713     0.000000000000
       2       -0.086409475077     0.086808546445     0.000000000000
       3       -0.036915000644    -0.086802280733     0.000000000000


*** tstop() called on cn0050 at Tue Apr 30 17:41:08 2024
Module time:
	user time   =       0.84 seconds =       0.01 minutes
	system time =       0.10 seconds =       0.00 minutes
	total time  =          0 seconds =       0.00 minutes
Total time:
	user time   =      10.04 seconds =       0.17 minutes
	system time =       1.29 seconds =       0.02 minutes
	total time  =          3 seconds =       0.05 minutes

    			-----------------------------------------

    			 OPTKING 3.0: for geometry optimizations 

    			     By R.A. King, Bethel University     

    			        with contributions from          

    			    A.V. Copan, J. Cayton, A. Heide      

    			-----------------------------------------

    
	                            ===> Fragment 1 <== 

	 Z (Atomic Numbers)          Masses                          Geom                  
	       8.000000            15.994915          0.21789649  0.06998166  0.00000000   
	       1.000000             1.007825         -2.05189163  2.13528789  0.00000000   
	       1.000000             1.007825         -1.40628382 -3.24594768  0.00000000   

	 - Coordinate -           - BOHR/RAD -       - ANG/DEG -
	 R(1,2)           =         3.068783           1.623930
	 R(1,3)           =         3.692337           1.953900
	 B(2,1,3)         =         1.853597         106.203275


	        --- Internal Coordinate Step in ANG or DEG, aJ/ANG or AJ/DEG ---
	-------------------------------------------------------------------------------
	           Coordinate      Previous         Force          Change          New 
	           ----------      --------        ------          ------        ------
	               R(1,2)       1.62393       -1.00788       -0.41514       1.20879
	               R(1,3)       1.95390       -0.77602       -0.32385       1.63005
	             B(2,1,3)     106.20328       -0.00141       -5.73919     100.46409
	-------------------------------------------------------------------------------

	                                 ==> Convergence Check <==                                  
    
	Measures of convergence in internal coordinates in au.
    
	Criteria marked as inactive (o), active & met (*), and active & unmet ( ).

	----------------------------------------------------------------------------------------------
	   Step    Total Energy     Delta E     Max Force     RMS Force      Max Disp      RMS Disp   
	----------------------------------------------------------------------------------------------
	  Convergence Criteria     1.00e-06 *    3.00e-04 *             o    1.20e-03 *             o
	----------------------------------------------------------------------------------------------
	     2     -75.65436414   -7.22e-02      1.22e-01      8.98e-02 o    7.85e-01      5.77e-01 o  ~
	----------------------------------------------------------------------------------------------

Next Geometry in Ang 
	Fragment 1 (Ang)

	    O  -0.0050832102   0.0555170996   0.0000000000
	    H  -0.9645954630   0.7907071805   0.0000000000
	    H  -0.7450031055  -1.3969274288   0.0000000000


    Structure for next step:
    Molecular point group: cs
    Full point group: Cs

    Geometry (in Angstrom), charge = 0, multiplicity = 1:

    O            0.095095866761     0.040135720303     0.000000000000
    H           -0.864416386066     0.775325801232     0.000000000000
    H           -0.644824028566    -1.412308808114     0.000000000000


Scratch directory: /scratch.global/lever046/psi4/
gradient() will perform analytic gradient computation.
   => Libint2 <=

    Primary   basis highest AM E, G, H:  5, 4, 3
    Auxiliary basis highest AM E, G, H:  6, 5, 4
    Onebody   basis highest AM E, G, H:  6, 5, 4
    Solid Harmonics ordering:            Gaussian

*** tstart() called on cn0050
*** at Tue Apr 30 17:41:08 2024

   => Loading Basis Set <=

    Name: 6-31+G*
    Role: ORBITAL
    Keyword: BASIS
    atoms 1   entry O          line   157 file /panfs/jay/groups/28/lever046/lever046/psi4conda/share/psi4/basis/6-31pgs.gbs 
    atoms 2-3 entry H          line    46 file /panfs/jay/groups/28/lever046/lever046/psi4conda/share/psi4/basis/6-31pgs.gbs 


         ---------------------------------------------------------
                                   SCF
               by Justin Turney, Rob Parrish, Andy Simmonett
                          and Daniel G. A. Smith
                              RHF Reference
                        8 Threads,    572 MiB Core
         ---------------------------------------------------------

  ==> Geometry <==

    Molecular point group: cs
    Full point group: Cs

    Geometry (in Angstrom), charge = 0, multiplicity = 1:

       Center              X                  Y                   Z               Mass       
    ------------   -----------------  -----------------  -----------------  -----------------
         O            0.095095866761     0.040135720303     0.000000000000    15.994914619570
         H           -0.864416386066     0.775325801232     0.000000000000     1.007825032230
         H           -0.644824028566    -1.412308808114     0.000000000000     1.007825032230

  Running in cs symmetry.

  Rotational constants: A =     13.47977  B =      6.22513  C =      4.25850 [cm^-1]
  Rotational constants: A = 404113.30361  B = 186624.69658  C = 127666.61811 [MHz]
  Nuclear repulsion =    6.339988189077062

  Charge       = 0
  Multiplicity = 1
  Electrons    = 10
  Nalpha       = 5
  Nbeta        = 5

  ==> Algorithm <==

  SCF Algorithm Type is DF.
  DIIS enabled.
  MOM disabled.
  Fractional occupation disabled.
  Guess Type is READ.
  Energy threshold   = 1.00e-08
  Density threshold  = 1.00e-08
  Integral threshold = 1.00e-12

  ==> Primary Basis <==

  Basis Set: 6-31+G*
    Blend: 6-31+G*
    Number of shells: 12
    Number of basis functions: 23
    Number of Cartesian functions: 23
    Spherical Harmonics?: false
    Max angular momentum: 2

   => Loading Basis Set <=

    Name: (6-31+G* AUX)
    Role: JKFIT
    Keyword: DF_BASIS_SCF
    atoms 1   entry O          line   310 file /panfs/jay/groups/28/lever046/lever046/psi4conda/share/psi4/basis/heavy-aug-cc-pvdz-jkfit.gbs 
    atoms 2-3 entry H          line   116 file /panfs/jay/groups/28/lever046/lever046/psi4conda/share/psi4/basis/heavy-aug-cc-pvdz-jkfit.gbs 

   => Loading Basis Set <=

    Name: 6-31+G*
    Role: ORBITAL
    Keyword: BASIS
    atoms 1   entry O          line   157 file /panfs/jay/groups/28/lever046/lever046/psi4conda/share/psi4/basis/6-31pgs.gbs 
    atoms 2-3 entry H          line    46 file /panfs/jay/groups/28/lever046/lever046/psi4conda/share/psi4/basis/6-31pgs.gbs 

  Reading orbitals from file /scratch.global/lever046/psi4/ps4_h2o_hf_nosmd_opt.h2o.2691793.180.npy, no projection.

  ==> Integral Setup <==

  DFHelper Memory: AOs need 0.001 GiB; user supplied 0.419 GiB. 
  Using in-core AOs.

  ==> MemDFJK: Density-Fitted J/K Matrices <==

    J tasked:                   Yes
    K tasked:                   Yes
    wK tasked:                   No
    OpenMP threads:               8
    Memory [MiB]:               429
    Algorithm:                 Core
    Schwarz Cutoff:           1E-12
    Mask sparsity (%):       0.0000
    Fitting Condition:        1E-10

   => Auxiliary Basis Set <=

  Basis Set: (6-31+G* AUX)
    Blend: HEAVY-AUG-CC-PVDZ-JKFIT
    Number of shells: 46
    Number of basis functions: 151
    Number of Cartesian functions: 151
    Spherical Harmonics?: false
    Max angular momentum: 3

  Minimum eigenvalue in the overlap matrix is 2.1676133319E-02.
  Reciprocal condition number of the overlap matrix is 4.7476392803E-03.
    Using symmetric orthogonalization.

  ==> Pre-Iterations <==

  SCF Guess: Orbitals guess was supplied from a previous computation.

   -------------------------------------------------------
    Irrep   Nso     Nmo     Nalpha   Nbeta   Ndocc  Nsocc
   -------------------------------------------------------
     A'        18      18       4       4       4       0
     A"         5       5       1       1       1       0
   -------------------------------------------------------
    Total      23      23       5       5       5       0
   -------------------------------------------------------

  ==> Iterations <==

                           Total Energy        Delta E     RMS |[F,P]|

   @DF-RHF iter   0:   -76.01787917181255   -7.60179e+01   2.02860e-02 
   @DF-RHF iter   1:   -75.82206088094321    1.95818e-01   4.28332e-03 ADIIS/DIIS
   @DF-RHF iter   2:   -75.82569863611580   -3.63776e-03   2.06259e-03 ADIIS/DIIS
   @DF-RHF iter   3:   -75.82622780307437   -5.29167e-04   9.68163e-04 ADIIS/DIIS
   @DF-RHF iter   4:   -75.82643223828694   -2.04435e-04   2.83984e-04 ADIIS/DIIS
   @DF-RHF iter   5:   -75.82647026378760   -3.80255e-05   7.35868e-05 DIIS
   @DF-RHF iter   6:   -75.82647575330323   -5.48952e-06   2.60086e-05 DIIS
   @DF-RHF iter   7:   -75.82647651080873   -7.57506e-07   7.13164e-06 DIIS
   @DF-RHF iter   8:   -75.82647656399924   -5.31905e-08   1.19071e-06 DIIS
   @DF-RHF iter   9:   -75.82647656491783   -9.18590e-10   2.17045e-07 DIIS
   @DF-RHF iter  10:   -75.82647656493941   -2.15863e-11   6.54852e-08 DIIS
   @DF-RHF iter  11:   -75.82647656494213   -2.71427e-12   1.52502e-08 DIIS
   @DF-RHF iter  12:   -75.82647656494228   -1.56319e-13   2.85625e-09 DIIS
  Energy and wave function converged.


  ==> Post-Iterations <==

    Orbital Energies [Eh]
    ---------------------

    Doubly Occupied:                                                      

       1Ap   -20.647214     2Ap    -1.241370     3Ap    -0.573662  
       1App   -0.503400     4Ap    -0.478158  

    Virtual:                                                              

       5Ap     0.038966     6Ap     0.166412     7Ap     0.254919  
       2App    0.255529     8Ap     0.279614     9Ap     0.329351  
      10Ap     0.978615    11Ap     1.066451     3App    1.406017  
      12Ap     1.439364    13Ap     1.523596    14Ap     1.559727  
      15Ap     2.068282     4App    2.081309     5App    2.101943  
      16Ap     2.148718    17Ap     2.463801    18Ap     4.055267  

    Final Occupation by Irrep:
             Ap   App 
    DOCC [     4,    1 ]
    NA   [     4,    1 ]
    NB   [     4,    1 ]

  @DF-RHF Final Energy:   -75.82647656494228

   => Energetics <=

    Nuclear Repulsion Energy =              6.3399881890770624
    One-Electron Energy =                -117.4453205872242307
    Two-Electron Energy =                  35.2788558332048723
    Total Energy =                        -75.8264765649422969

Computation Completed


Properties will be evaluated at   0.000000,   0.000000,   0.000000 [a0]

Properties computed using the SCF density matrix


 Multipole Moments:

 ------------------------------------------------------------------------------------
     Multipole            Electronic (a.u.)      Nuclear  (a.u.)        Total (a.u.)
 ------------------------------------------------------------------------------------

 L = 1.  Multiply by 2.5417464519 to convert [e a0] to [Debye]
 Dipole X            :          0.4254751           -1.4144099           -0.9889348
 Dipole Y            :          0.3684192           -0.5969593           -0.2285401
 Dipole Z            :          0.0000000            0.0000000            0.0000000
 Magnitude           :                                                    1.0149988

 ------------------------------------------------------------------------------------

*** tstop() called on cn0050 at Tue Apr 30 17:41:08 2024
Module time:
	user time   =       2.11 seconds =       0.04 minutes
	system time =       0.28 seconds =       0.00 minutes
	total time  =          0 seconds =       0.00 minutes
Total time:
	user time   =      12.73 seconds =       0.21 minutes
	system time =       1.62 seconds =       0.03 minutes
	total time  =          3 seconds =       0.05 minutes

*** tstart() called on cn0050
*** at Tue Apr 30 17:41:08 2024


         ------------------------------------------------------------
                                   SCF GRAD                          
                          Rob Parrish, Justin Turney,                
                       Andy Simmonett, and Alex Sokolov              
         ------------------------------------------------------------

  ==> Geometry <==

    Molecular point group: cs
    Full point group: Cs

    Geometry (in Angstrom), charge = 0, multiplicity = 1:

       Center              X                  Y                   Z               Mass       
    ------------   -----------------  -----------------  -----------------  -----------------
         O            0.095095866761     0.040135720303     0.000000000000    15.994914619570
         H           -0.864416386066     0.775325801232     0.000000000000     1.007825032230
         H           -0.644824028566    -1.412308808114     0.000000000000     1.007825032230

  Nuclear repulsion =    6.339988189077062

  ==> Basis Set <==

  Basis Set: 6-31+G*
    Blend: 6-31+G*
    Number of shells: 12
    Number of basis functions: 23
    Number of Cartesian functions: 23
    Spherical Harmonics?: false
    Max angular momentum: 2

  ==> DFJKGrad: Density-Fitted SCF Gradients <==

    Gradient:                    1
    J tasked:                  Yes
    K tasked:                  Yes
    wK tasked:                  No
    OpenMP threads:              8
    Integrals threads:           8
    Memory [MiB]:              429
    Schwarz Cutoff:          1E-12
    Fitting Condition:       1E-10

   => Auxiliary Basis Set <=

  Basis Set: (6-31+G* AUX)
    Blend: HEAVY-AUG-CC-PVDZ-JKFIT
    Number of shells: 46
    Number of basis functions: 151
    Number of Cartesian functions: 151
    Spherical Harmonics?: false
    Max angular momentum: 3


  -Total Gradient:
     Atom            X                  Y                   Z
    ------   -----------------  -----------------  -----------------
       1        0.153145612396     0.027340025610     0.000000000000
       2       -0.100736003693     0.082732800173     0.000000000000
       3       -0.052409608703    -0.110072825783     0.000000000000


*** tstop() called on cn0050 at Tue Apr 30 17:41:09 2024
Module time:
	user time   =       0.83 seconds =       0.01 minutes
	system time =       0.11 seconds =       0.00 minutes
	total time  =          1 seconds =       0.02 minutes
Total time:
	user time   =      13.57 seconds =       0.23 minutes
	system time =       1.73 seconds =       0.03 minutes
	total time  =          4 seconds =       0.07 minutes

    			-----------------------------------------

    			 OPTKING 3.0: for geometry optimizations 

    			     By R.A. King, Bethel University     

    			        with contributions from          

    			    A.V. Copan, J. Cayton, A. Heide      

    			-----------------------------------------

    
	                            ===> Fragment 1 <== 

	 Z (Atomic Numbers)          Masses                          Geom                  
	       8.000000            15.994915          0.17970514  0.07584552  0.00000000   
	       1.000000             1.007825         -1.63351023  1.46515342  0.00000000   
	       1.000000             1.007825         -1.21854081 -2.66887685  0.00000000   

	 - Coordinate -           - BOHR/RAD -       - ANG/DEG -
	 R(1,2)           =         2.284278           1.208788
	 R(1,3)           =         3.080356           1.630054
	 B(2,1,3)         =         1.753429         100.464088


	        --- Internal Coordinate Step in ANG or DEG, aJ/ANG or AJ/DEG ---
	-------------------------------------------------------------------------------
	           Coordinate      Previous         Force          Change          New 
	           ----------      --------        ------          ------        ------
	               R(1,2)       1.20879       -1.07335       -0.37765       0.83113
	               R(1,3)       1.63005       -1.00405       -0.36957       1.26049
	             B(2,1,3)     100.46409       -0.00077       -3.11174      97.35235
	-------------------------------------------------------------------------------

	                                 ==> Convergence Check <==                                  
    
	Measures of convergence in internal coordinates in au.
    
	Criteria marked as inactive (o), active & met (*), and active & unmet ( ).

	----------------------------------------------------------------------------------------------
	   Step    Total Energy     Delta E     Max Force     RMS Force      Max Disp      RMS Disp   
	----------------------------------------------------------------------------------------------
	  Convergence Criteria     1.00e-06 *    3.00e-04 *             o    1.20e-03 *             o
	----------------------------------------------------------------------------------------------
	     3     -75.82647656   -1.72e-01      1.30e-01      1.03e-01 o    7.14e-01      5.77e-01 o  ~
	----------------------------------------------------------------------------------------------

Next Geometry in Ang 
	Fragment 1 (Ang)

	    O  -0.0533549644   0.0218477465   0.0000000000
	    H  -0.7426023850   0.4863069567   0.0000000000
	    H  -0.6181871984  -1.1050019898   0.0000000000


    Structure for next step:
    Molecular point group: cs
    Full point group: Cs

    Geometry (in Angstrom), charge = 0, multiplicity = 1:

    O            0.070175082817     0.037065675899     0.000000000000
    H           -0.619072337747     0.501524886087     0.000000000000
    H           -0.494657151192    -1.089784060405     0.000000000000


Scratch directory: /scratch.global/lever046/psi4/
gradient() will perform analytic gradient computation.
   => Libint2 <=

    Primary   basis highest AM E, G, H:  5, 4, 3
    Auxiliary basis highest AM E, G, H:  6, 5, 4
    Onebody   basis highest AM E, G, H:  6, 5, 4
    Solid Harmonics ordering:            Gaussian

*** tstart() called on cn0050
*** at Tue Apr 30 17:41:09 2024

   => Loading Basis Set <=

    Name: 6-31+G*
    Role: ORBITAL
    Keyword: BASIS
    atoms 1   entry O          line   157 file /panfs/jay/groups/28/lever046/lever046/psi4conda/share/psi4/basis/6-31pgs.gbs 
    atoms 2-3 entry H          line    46 file /panfs/jay/groups/28/lever046/lever046/psi4conda/share/psi4/basis/6-31pgs.gbs 


         ---------------------------------------------------------
                                   SCF
               by Justin Turney, Rob Parrish, Andy Simmonett
                          and Daniel G. A. Smith
                              RHF Reference
                        8 Threads,    572 MiB Core
         ---------------------------------------------------------

  ==> Geometry <==

    Molecular point group: cs
    Full point group: Cs

    Geometry (in Angstrom), charge = 0, multiplicity = 1:

       Center              X                  Y                   Z               Mass       
    ------------   -----------------  -----------------  -----------------  -----------------
         O            0.070175082817     0.037065675899     0.000000000000    15.994914619570
         H           -0.619072337747     0.501524886087     0.000000000000     1.007825032230
         H           -0.494657151192    -1.089784060405     0.000000000000     1.007825032230

  Running in cs symmetry.

  Rotational constants: A =     26.99879  B =     10.80877  C =      7.71866 [cm^-1]
  Rotational constants: A = 809403.49681  B = 324038.63179  C = 231399.55279 [MHz]
  Nuclear repulsion =    8.783631093864818

  Charge       = 0
  Multiplicity = 1
  Electrons    = 10
  Nalpha       = 5
  Nbeta        = 5

  ==> Algorithm <==

  SCF Algorithm Type is DF.
  DIIS enabled.
  MOM disabled.
  Fractional occupation disabled.
  Guess Type is READ.
  Energy threshold   = 1.00e-08
  Density threshold  = 1.00e-08
  Integral threshold = 1.00e-12

  ==> Primary Basis <==

  Basis Set: 6-31+G*
    Blend: 6-31+G*
    Number of shells: 12
    Number of basis functions: 23
    Number of Cartesian functions: 23
    Spherical Harmonics?: false
    Max angular momentum: 2

   => Loading Basis Set <=

    Name: (6-31+G* AUX)
    Role: JKFIT
    Keyword: DF_BASIS_SCF
    atoms 1   entry O          line   310 file /panfs/jay/groups/28/lever046/lever046/psi4conda/share/psi4/basis/heavy-aug-cc-pvdz-jkfit.gbs 
    atoms 2-3 entry H          line   116 file /panfs/jay/groups/28/lever046/lever046/psi4conda/share/psi4/basis/heavy-aug-cc-pvdz-jkfit.gbs 

   => Loading Basis Set <=

    Name: 6-31+G*
    Role: ORBITAL
    Keyword: BASIS
    atoms 1   entry O          line   157 file /panfs/jay/groups/28/lever046/lever046/psi4conda/share/psi4/basis/6-31pgs.gbs 
    atoms 2-3 entry H          line    46 file /panfs/jay/groups/28/lever046/lever046/psi4conda/share/psi4/basis/6-31pgs.gbs 

  Reading orbitals from file /scratch.global/lever046/psi4/ps4_h2o_hf_nosmd_opt.h2o.2691793.180.npy, no projection.

  ==> Integral Setup <==

  DFHelper Memory: AOs need 0.001 GiB; user supplied 0.419 GiB. 
  Using in-core AOs.

  ==> MemDFJK: Density-Fitted J/K Matrices <==

    J tasked:                   Yes
    K tasked:                   Yes
    wK tasked:                   No
    OpenMP threads:               8
    Memory [MiB]:               429
    Algorithm:                 Core
    Schwarz Cutoff:           1E-12
    Mask sparsity (%):       0.0000
    Fitting Condition:        1E-10

   => Auxiliary Basis Set <=

  Basis Set: (6-31+G* AUX)
    Blend: HEAVY-AUG-CC-PVDZ-JKFIT
    Number of shells: 46
    Number of basis functions: 151
    Number of Cartesian functions: 151
    Spherical Harmonics?: false
    Max angular momentum: 3

  Minimum eigenvalue in the overlap matrix is 1.6037963736E-02.
  Reciprocal condition number of the overlap matrix is 3.0677373289E-03.
    Using symmetric orthogonalization.

  ==> Pre-Iterations <==

  SCF Guess: Orbitals guess was supplied from a previous computation.

   -------------------------------------------------------
    Irrep   Nso     Nmo     Nalpha   Nbeta   Ndocc  Nsocc
   -------------------------------------------------------
     A'        18      18       4       4       4       0
     A"         5       5       1       1       1       0
   -------------------------------------------------------
    Total      23      23       5       5       5       0
   -------------------------------------------------------

  ==> Iterations <==

                           Total Energy        Delta E     RMS |[F,P]|

   @DF-RHF iter   0:   -76.19967893305520   -7.61997e+01   3.59678e-02 
   @DF-RHF iter   1:   -75.93316480582982    2.66514e-01   5.64639e-03 ADIIS/DIIS
   @DF-RHF iter   2:   -75.93921963743225   -6.05483e-03   1.35821e-03 ADIIS/DIIS
   @DF-RHF iter   3:   -75.93977452832979   -5.54891e-04   7.54324e-04 ADIIS/DIIS
   @DF-RHF iter   4:   -75.93991643893737   -1.41911e-04   2.72174e-04 ADIIS/DIIS
   @DF-RHF iter   5:   -75.93994997905226   -3.35401e-05   6.56375e-05 DIIS
   @DF-RHF iter   6:   -75.93995284169846   -2.86265e-06   1.32904e-05 DIIS
   @DF-RHF iter   7:   -75.93995293107241   -8.93740e-08   2.05430e-06 DIIS
   @DF-RHF iter   8:   -75.93995293305692   -1.98450e-09   4.36484e-07 DIIS
   @DF-RHF iter   9:   -75.93995293313432   -7.74065e-11   8.52563e-08 DIIS
   @DF-RHF iter  10:   -75.93995293313765   -3.32534e-12   1.39624e-08 DIIS
   @DF-RHF iter  11:   -75.93995293313779   -1.42109e-13   2.01857e-09 DIIS
  Energy and wave function converged.


  ==> Post-Iterations <==

    Orbital Energies [Eh]
    ---------------------

    Doubly Occupied:                                                      

       1Ap   -20.593408     2Ap    -1.358351     3Ap    -0.689232  
       4Ap    -0.560855     1App   -0.510488  

    Virtual:                                                              

       5Ap     0.118765     6Ap     0.209579     2App    0.252839  
       7Ap     0.253413     8Ap     0.282574     9Ap     0.434759  
      10Ap     1.033421    11Ap     1.338355     3App    1.404751  
      12Ap     1.445595    13Ap     1.487347    14Ap     1.597173  
      15Ap     2.003997     4App    2.025934     5App    2.070116  
      16Ap     2.337791    17Ap     3.070030    18Ap     4.125725  

    Final Occupation by Irrep:
             Ap   App 
    DOCC [     4,    1 ]
    NA   [     4,    1 ]
    NB   [     4,    1 ]

  @DF-RHF Final Energy:   -75.93995293313779

   => Energetics <=

    Nuclear Repulsion Energy =              8.7836310938648179
    One-Electron Energy =                -122.0225001862644092
    Two-Electron Energy =                  37.2989161592618075
    Total Energy =                        -75.9399529331377892

Computation Completed


Properties will be evaluated at   0.000000,   0.000000,   0.000000 [a0]

Properties computed using the SCF density matrix


 Multipole Moments:

 ------------------------------------------------------------------------------------
     Multipole            Electronic (a.u.)      Nuclear  (a.u.)        Total (a.u.)
 ------------------------------------------------------------------------------------

 L = 1.  Multiply by 2.5417464519 to convert [e a0] to [Debye]
 Dipole X            :          0.1117334           -1.0437502           -0.9320168
 Dipole Y            :          0.2150918           -0.5512969           -0.3362051
 Dipole Z            :          0.0000000            0.0000000            0.0000000
 Magnitude           :                                                    0.9908023

 ------------------------------------------------------------------------------------

*** tstop() called on cn0050 at Tue Apr 30 17:41:09 2024
Module time:
	user time   =       1.92 seconds =       0.03 minutes
	system time =       0.17 seconds =       0.00 minutes
	total time  =          0 seconds =       0.00 minutes
Total time:
	user time   =      16.02 seconds =       0.27 minutes
	system time =       1.96 seconds =       0.03 minutes
	total time  =          4 seconds =       0.07 minutes

*** tstart() called on cn0050
*** at Tue Apr 30 17:41:09 2024


         ------------------------------------------------------------
                                   SCF GRAD                          
                          Rob Parrish, Justin Turney,                
                       Andy Simmonett, and Alex Sokolov              
         ------------------------------------------------------------

  ==> Geometry <==

    Molecular point group: cs
    Full point group: Cs

    Geometry (in Angstrom), charge = 0, multiplicity = 1:

       Center              X                  Y                   Z               Mass       
    ------------   -----------------  -----------------  -----------------  -----------------
         O            0.070175082817     0.037065675899     0.000000000000    15.994914619570
         H           -0.619072337747     0.501524886087     0.000000000000     1.007825032230
         H           -0.494657151192    -1.089784060405     0.000000000000     1.007825032230

  Nuclear repulsion =    8.783631093864818

  ==> Basis Set <==

  Basis Set: 6-31+G*
    Blend: 6-31+G*
    Number of shells: 12
    Number of basis functions: 23
    Number of Cartesian functions: 23
    Spherical Harmonics?: false
    Max angular momentum: 2

  ==> DFJKGrad: Density-Fitted SCF Gradients <==

    Gradient:                    1
    J tasked:                  Yes
    K tasked:                  Yes
    wK tasked:                  No
    OpenMP threads:              8
    Integrals threads:           8
    Memory [MiB]:              429
    Schwarz Cutoff:          1E-12
    Fitting Condition:       1E-10

   => Auxiliary Basis Set <=

  Basis Set: (6-31+G* AUX)
    Blend: HEAVY-AUG-CC-PVDZ-JKFIT
    Number of shells: 46
    Number of basis functions: 151
    Number of Cartesian functions: 151
    Spherical Harmonics?: false
    Max angular momentum: 3


  -Total Gradient:
     Atom            X                  Y                   Z
    ------   -----------------  -----------------  -----------------
       1       -0.102792039737     0.245028929733     0.000000000000
       2        0.169665936894    -0.126668644604     0.000000000000
       3       -0.066873897157    -0.118360285129     0.000000000000


*** tstop() called on cn0050 at Tue Apr 30 17:41:09 2024
Module time:
	user time   =       0.82 seconds =       0.01 minutes
	system time =       0.10 seconds =       0.00 minutes
	total time  =          0 seconds =       0.00 minutes
Total time:
	user time   =      16.86 seconds =       0.28 minutes
	system time =       2.06 seconds =       0.03 minutes
	total time  =          4 seconds =       0.07 minutes

    			-----------------------------------------

    			 OPTKING 3.0: for geometry optimizations 

    			     By R.A. King, Bethel University     

    			        with contributions from          

    			    A.V. Copan, J. Cayton, A. Heide      

    			-----------------------------------------

    
	                            ===> Fragment 1 <== 

	 Z (Atomic Numbers)          Masses                          Geom                  
	       8.000000            15.994915          0.13261169  0.07004398  0.00000000   
	       1.000000             1.007825         -1.16987717  0.94774468  0.00000000   
	       1.000000             1.007825         -0.93476654 -2.05939341  0.00000000   

	 - Coordinate -           - BOHR/RAD -       - ANG/DEG -
	 R(1,2)           =         1.570616           0.831134
	 R(1,3)           =         2.381974           1.260486
	 B(2,1,3)         =         1.699119          97.352353


	        --- Internal Coordinate Step in ANG or DEG, aJ/ANG or AJ/DEG ---
	-------------------------------------------------------------------------------
	           Coordinate      Previous         Force          Change          New 
	           ----------      --------        ------          ------        ------
	               R(1,2)       0.83113        1.74238        0.24846       1.07959
	               R(1,3)       1.26049       -1.11864       -0.28774       0.97275
	             B(2,1,3)      97.35235        0.00122        1.33672      98.68907
	-------------------------------------------------------------------------------

	                                 ==> Convergence Check <==                                  
    
	Measures of convergence in internal coordinates in au.
    
	Criteria marked as inactive (o), active & met (*), and active & unmet ( ).

	----------------------------------------------------------------------------------------------
	   Step    Total Energy     Delta E     Max Force     RMS Force      Max Disp      RMS Disp   
	----------------------------------------------------------------------------------------------
	  Convergence Criteria     1.00e-06 *    3.00e-04 *             o    1.20e-03 *             o
	----------------------------------------------------------------------------------------------
	     4     -75.93995293   -1.13e-01      2.11e-01      1.45e-01 o    5.44e-01      4.15e-01 o  ~
	----------------------------------------------------------------------------------------------

Next Geometry in Ang 
	Fragment 1 (Ang)

	    O   0.0972474495  -0.1480927241   0.0000000000
	    H  -0.7138386359   0.5644058042   0.0000000000
	    H  -0.4269632197  -0.9675065785   0.0000000000


    Structure for next step:
    Molecular point group: cs
    Full point group: Cs

    Geometry (in Angstrom), charge = 0, multiplicity = 1:

    O            0.074719783541     0.005982707588     0.000000000000
    H           -0.736366301809     0.718481235888     0.000000000000
    H           -0.449490885603    -0.813431146834     0.000000000000


Scratch directory: /scratch.global/lever046/psi4/
gradient() will perform analytic gradient computation.
   => Libint2 <=

    Primary   basis highest AM E, G, H:  5, 4, 3
    Auxiliary basis highest AM E, G, H:  6, 5, 4
    Onebody   basis highest AM E, G, H:  6, 5, 4
    Solid Harmonics ordering:            Gaussian

*** tstart() called on cn0050
*** at Tue Apr 30 17:41:09 2024

   => Loading Basis Set <=

    Name: 6-31+G*
    Role: ORBITAL
    Keyword: BASIS
    atoms 1   entry O          line   157 file /panfs/jay/groups/28/lever046/lever046/psi4conda/share/psi4/basis/6-31pgs.gbs 
    atoms 2-3 entry H          line    46 file /panfs/jay/groups/28/lever046/lever046/psi4conda/share/psi4/basis/6-31pgs.gbs 


         ---------------------------------------------------------
                                   SCF
               by Justin Turney, Rob Parrish, Andy Simmonett
                          and Daniel G. A. Smith
                              RHF Reference
                        8 Threads,    572 MiB Core
         ---------------------------------------------------------

  ==> Geometry <==

    Molecular point group: cs
    Full point group: Cs

    Geometry (in Angstrom), charge = 0, multiplicity = 1:

       Center              X                  Y                   Z               Mass       
    ------------   -----------------  -----------------  -----------------  -----------------
         O            0.074719783541     0.005982707588     0.000000000000    15.994914619570
         H           -0.736366301809     0.718481235888     0.000000000000     1.007825032230
         H           -0.449490885603    -0.813431146834     0.000000000000     1.007825032230

  Running in cs symmetry.

  Rotational constants: A =     21.64848  B =     13.50362  C =      8.31623 [cm^-1]
  Rotational constants: A = 649005.24267  B = 404828.23550  C = 249314.19685 [MHz]
  Nuclear repulsion =    8.612878266688595

  Charge       = 0
  Multiplicity = 1
  Electrons    = 10
  Nalpha       = 5
  Nbeta        = 5

  ==> Algorithm <==

  SCF Algorithm Type is DF.
  DIIS enabled.
  MOM disabled.
  Fractional occupation disabled.
  Guess Type is READ.
  Energy threshold   = 1.00e-08
  Density threshold  = 1.00e-08
  Integral threshold = 1.00e-12

  ==> Primary Basis <==

  Basis Set: 6-31+G*
    Blend: 6-31+G*
    Number of shells: 12
    Number of basis functions: 23
    Number of Cartesian functions: 23
    Spherical Harmonics?: false
    Max angular momentum: 2

   => Loading Basis Set <=

    Name: (6-31+G* AUX)
    Role: JKFIT
    Keyword: DF_BASIS_SCF
    atoms 1   entry O          line   310 file /panfs/jay/groups/28/lever046/lever046/psi4conda/share/psi4/basis/heavy-aug-cc-pvdz-jkfit.gbs 
    atoms 2-3 entry H          line   116 file /panfs/jay/groups/28/lever046/lever046/psi4conda/share/psi4/basis/heavy-aug-cc-pvdz-jkfit.gbs 

   => Loading Basis Set <=

    Name: 6-31+G*
    Role: ORBITAL
    Keyword: BASIS
    atoms 1   entry O          line   157 file /panfs/jay/groups/28/lever046/lever046/psi4conda/share/psi4/basis/6-31pgs.gbs 
    atoms 2-3 entry H          line    46 file /panfs/jay/groups/28/lever046/lever046/psi4conda/share/psi4/basis/6-31pgs.gbs 

  Reading orbitals from file /scratch.global/lever046/psi4/ps4_h2o_hf_nosmd_opt.h2o.2691793.180.npy, no projection.

  ==> Integral Setup <==

  DFHelper Memory: AOs need 0.001 GiB; user supplied 0.419 GiB. 
  Using in-core AOs.

  ==> MemDFJK: Density-Fitted J/K Matrices <==

    J tasked:                   Yes
    K tasked:                   Yes
    wK tasked:                   No
    OpenMP threads:               8
    Memory [MiB]:               429
    Algorithm:                 Core
    Schwarz Cutoff:           1E-12
    Mask sparsity (%):       0.0000
    Fitting Condition:        1E-10

   => Auxiliary Basis Set <=

  Basis Set: (6-31+G* AUX)
    Blend: HEAVY-AUG-CC-PVDZ-JKFIT
    Number of shells: 46
    Number of basis functions: 151
    Number of Cartesian functions: 151
    Spherical Harmonics?: false
    Max angular momentum: 3

  Minimum eigenvalue in the overlap matrix is 1.9663471058E-02.
  Reciprocal condition number of the overlap matrix is 3.7594635000E-03.
    Using symmetric orthogonalization.

  ==> Pre-Iterations <==

  SCF Guess: Orbitals guess was supplied from a previous computation.

   -------------------------------------------------------
    Irrep   Nso     Nmo     Nalpha   Nbeta   Ndocc  Nsocc
   -------------------------------------------------------
     A'        18      18       4       4       4       0
     A"         5       5       1       1       1       0
   -------------------------------------------------------
    Total      23      23       5       5       5       0
   -------------------------------------------------------

  ==> Iterations <==

                           Total Energy        Delta E     RMS |[F,P]|

   @DF-RHF iter   0:   -76.00310745938036   -7.60031e+01   3.39165e-02 
   @DF-RHF iter   1:   -75.99661691870322    6.49054e-03   5.06295e-03 ADIIS/DIIS
   @DF-RHF iter   2:   -76.00166220164377   -5.04528e-03   1.11043e-03 ADIIS/DIIS
   @DF-RHF iter   3:   -76.00203687516124   -3.74674e-04   4.13401e-04 ADIIS/DIIS
   @DF-RHF iter   4:   -76.00210731248929   -7.04373e-05   1.67387e-04 ADIIS/DIIS
   @DF-RHF iter   5:   -76.00211334928611   -6.03680e-06   3.56870e-05 DIIS
   @DF-RHF iter   6:   -76.00211378472483   -4.35439e-07   4.87661e-06 DIIS
   @DF-RHF iter   7:   -76.00211379568914   -1.09643e-08   9.95956e-07 DIIS
   @DF-RHF iter   8:   -76.00211379616105   -4.71914e-10   1.08932e-07 DIIS
   @DF-RHF iter   9:   -76.00211379616610   -5.04485e-12   2.14829e-08 DIIS
   @DF-RHF iter  10:   -76.00211379616640   -2.98428e-13   4.36867e-09 DIIS
  Energy and wave function converged.


  ==> Post-Iterations <==

    Orbital Energies [Eh]
    ---------------------

    Doubly Occupied:                                                      

       1Ap   -20.596063     2Ap    -1.330871     3Ap    -0.677697  
       4Ap    -0.581716     1App   -0.506993  

    Virtual:                                                              

       5Ap     0.140459     6Ap     0.225026     7Ap     0.250823  
       2App    0.253258     8Ap     0.311152     9Ap     0.380353  
      10Ap     1.135517    11Ap     1.289467     3App    1.404003  
      12Ap     1.407157    13Ap     1.439203    14Ap     1.528664  
      15Ap     2.009536     4App    2.038112     5App    2.061017  
      16Ap     2.520860    17Ap     2.891119    18Ap     4.077109  

    Final Occupation by Irrep:
             Ap   App 
    DOCC [     4,    1 ]
    NA   [     4,    1 ]
    NB   [     4,    1 ]

  @DF-RHF Final Energy:   -76.00211379616640

   => Energetics <=

    Nuclear Repulsion Energy =              8.6128782666885950
    One-Electron Energy =                -121.8433041609248590
    Two-Electron Energy =                  37.2283120980698712
    Total Energy =                        -76.0021137961663840

Computation Completed


Properties will be evaluated at   0.000000,   0.000000,   0.000000 [a0]

Properties computed using the SCF density matrix


 Multipole Moments:

 ------------------------------------------------------------------------------------
     Multipole            Electronic (a.u.)      Nuclear  (a.u.)        Total (a.u.)
 ------------------------------------------------------------------------------------

 L = 1.  Multiply by 2.5417464519 to convert [e a0] to [Debye]
 Dipole X            :          0.1356188           -1.1113459           -0.9757271
 Dipole Y            :         -0.0258317           -0.0889839           -0.1148156
 Dipole Z            :          0.0000000            0.0000000            0.0000000
 Magnitude           :                                                    0.9824592

 ------------------------------------------------------------------------------------

*** tstop() called on cn0050 at Tue Apr 30 17:41:09 2024
Module time:
	user time   =       1.91 seconds =       0.03 minutes
	system time =       0.19 seconds =       0.00 minutes
	total time  =          0 seconds =       0.00 minutes
Total time:
	user time   =      19.31 seconds =       0.32 minutes
	system time =       2.29 seconds =       0.04 minutes
	total time  =          4 seconds =       0.07 minutes

*** tstart() called on cn0050
*** at Tue Apr 30 17:41:09 2024


         ------------------------------------------------------------
                                   SCF GRAD                          
                          Rob Parrish, Justin Turney,                
                       Andy Simmonett, and Alex Sokolov              
         ------------------------------------------------------------

  ==> Geometry <==

    Molecular point group: cs
    Full point group: Cs

    Geometry (in Angstrom), charge = 0, multiplicity = 1:

       Center              X                  Y                   Z               Mass       
    ------------   -----------------  -----------------  -----------------  -----------------
         O            0.074719783541     0.005982707588     0.000000000000    15.994914619570
         H           -0.736366301809     0.718481235888     0.000000000000     1.007825032230
         H           -0.449490885603    -0.813431146834     0.000000000000     1.007825032230

  Nuclear repulsion =    8.612878266688595

  ==> Basis Set <==

  Basis Set: 6-31+G*
    Blend: 6-31+G*
    Number of shells: 12
    Number of basis functions: 23
    Number of Cartesian functions: 23
    Spherical Harmonics?: false
    Max angular momentum: 2

  ==> DFJKGrad: Density-Fitted SCF Gradients <==

    Gradient:                    1
    J tasked:                  Yes
    K tasked:                  Yes
    wK tasked:                  No
    OpenMP threads:              8
    Integrals threads:           8
    Memory [MiB]:              429
    Schwarz Cutoff:          1E-12
    Fitting Condition:       1E-10

   => Auxiliary Basis Set <=

  Basis Set: (6-31+G* AUX)
    Blend: HEAVY-AUG-CC-PVDZ-JKFIT
    Number of shells: 46
    Number of basis functions: 151
    Number of Cartesian functions: 151
    Spherical Harmonics?: false
    Max angular momentum: 3


  -Total Gradient:
     Atom            X                  Y                   Z
    ------   -----------------  -----------------  -----------------
       1        0.097898504853    -0.042663317078     0.000000000000
       2       -0.077524597927     0.056390101110     0.000000000000
       3       -0.020373906926    -0.013726784032     0.000000000000


*** tstop() called on cn0050 at Tue Apr 30 17:41:10 2024
Module time:
	user time   =       0.72 seconds =       0.01 minutes
	system time =       0.10 seconds =       0.00 minutes
	total time  =          1 seconds =       0.02 minutes
Total time:
	user time   =      20.05 seconds =       0.33 minutes
	system time =       2.39 seconds =       0.04 minutes
	total time  =          5 seconds =       0.08 minutes

    			-----------------------------------------

    			 OPTKING 3.0: for geometry optimizations 

    			     By R.A. King, Bethel University     

    			        with contributions from          

    			    A.V. Copan, J. Cayton, A. Heide      

    			-----------------------------------------

    
	                            ===> Fragment 1 <== 

	 Z (Atomic Numbers)          Masses                          Geom                  
	       8.000000            15.994915          0.14119993  0.01130568  0.00000000   
	       1.000000             1.007825         -1.39153064  1.35773276  0.00000000   
	       1.000000             1.007825         -0.84941467 -1.53716209  0.00000000   

	 - Coordinate -           - BOHR/RAD -       - ANG/DEG -
	 R(1,2)           =         2.040130           1.079590
	 R(1,3)           =         1.838225           0.972747
	 B(2,1,3)         =         1.722449          98.689071


	        --- Internal Coordinate Step in ANG or DEG, aJ/ANG or AJ/DEG ---
	-------------------------------------------------------------------------------
	           Coordinate      Previous         Force          Change          New 
	           ----------      --------        ------          ------        ------
	               R(1,2)       1.07959       -0.78646       -0.39185       0.68774
	               R(1,3)       0.97275       -0.18572       -0.20841       0.76433
	             B(2,1,3)      98.68907        0.00137        3.76674     102.45581
	-------------------------------------------------------------------------------

	                                 ==> Convergence Check <==                                  
    
	Measures of convergence in internal coordinates in au.
    
	Criteria marked as inactive (o), active & met (*), and active & unmet ( ).

	----------------------------------------------------------------------------------------------
	   Step    Total Energy     Delta E     Max Force     RMS Force      Max Disp      RMS Disp   
	----------------------------------------------------------------------------------------------
	  Convergence Criteria     1.00e-06 *    3.00e-04 *             o    1.20e-03 *             o
	----------------------------------------------------------------------------------------------
	     5     -76.00211380   -6.22e-02      9.55e-02      5.76e-02 o    7.40e-01      4.86e-01 o  ~
	----------------------------------------------------------------------------------------------

Next Geometry in Ang 
	Fragment 1 (Ang)

	    O  -0.0763468715   0.0466074476   0.0000000000
	    H  -0.5997443145   0.4927549135   0.0000000000
	    H  -0.4350462178  -0.6283295645   0.0000000000


    Structure for next step:
    Molecular point group: cs
    Full point group: Cs

    Geometry (in Angstrom), charge = 0, multiplicity = 1:

    O            0.049359875198     0.012802476538     0.000000000000
    H           -0.474037567780     0.458949942455     0.000000000000
    H           -0.309339471060    -0.662134535602     0.000000000000


Scratch directory: /scratch.global/lever046/psi4/
gradient() will perform analytic gradient computation.
   => Libint2 <=

    Primary   basis highest AM E, G, H:  5, 4, 3
    Auxiliary basis highest AM E, G, H:  6, 5, 4
    Onebody   basis highest AM E, G, H:  6, 5, 4
    Solid Harmonics ordering:            Gaussian

*** tstart() called on cn0050
*** at Tue Apr 30 17:41:10 2024

   => Loading Basis Set <=

    Name: 6-31+G*
    Role: ORBITAL
    Keyword: BASIS
    atoms 1   entry O          line   157 file /panfs/jay/groups/28/lever046/lever046/psi4conda/share/psi4/basis/6-31pgs.gbs 
    atoms 2-3 entry H          line    46 file /panfs/jay/groups/28/lever046/lever046/psi4conda/share/psi4/basis/6-31pgs.gbs 


         ---------------------------------------------------------
                                   SCF
               by Justin Turney, Rob Parrish, Andy Simmonett
                          and Daniel G. A. Smith
                              RHF Reference
                        8 Threads,    572 MiB Core
         ---------------------------------------------------------

  ==> Geometry <==

    Molecular point group: cs
    Full point group: Cs

    Geometry (in Angstrom), charge = 0, multiplicity = 1:

       Center              X                  Y                   Z               Mass       
    ------------   -----------------  -----------------  -----------------  -----------------
         O            0.049359875198     0.012802476538     0.000000000000    15.994914619570
         H           -0.474037567780     0.458949942455     0.000000000000     1.007825032230
         H           -0.309339471060    -0.662134535602     0.000000000000     1.007825032230

  Running in cs symmetry.

  Rotational constants: A =     46.58677  B =     25.66697  C =     16.54920 [cm^-1]
  Rotational constants: A = 1396636.23349  B = 769476.47043  C = 496132.41152 [MHz]
  Nuclear repulsion =   12.161226853806731

  Charge       = 0
  Multiplicity = 1
  Electrons    = 10
  Nalpha       = 5
  Nbeta        = 5

  ==> Algorithm <==

  SCF Algorithm Type is DF.
  DIIS enabled.
  MOM disabled.
  Fractional occupation disabled.
  Guess Type is READ.
  Energy threshold   = 1.00e-08
  Density threshold  = 1.00e-08
  Integral threshold = 1.00e-12

  ==> Primary Basis <==

  Basis Set: 6-31+G*
    Blend: 6-31+G*
    Number of shells: 12
    Number of basis functions: 23
    Number of Cartesian functions: 23
    Spherical Harmonics?: false
    Max angular momentum: 2

   => Loading Basis Set <=

    Name: (6-31+G* AUX)
    Role: JKFIT
    Keyword: DF_BASIS_SCF
    atoms 1   entry O          line   310 file /panfs/jay/groups/28/lever046/lever046/psi4conda/share/psi4/basis/heavy-aug-cc-pvdz-jkfit.gbs 
    atoms 2-3 entry H          line   116 file /panfs/jay/groups/28/lever046/lever046/psi4conda/share/psi4/basis/heavy-aug-cc-pvdz-jkfit.gbs 

   => Loading Basis Set <=

    Name: 6-31+G*
    Role: ORBITAL
    Keyword: BASIS
    atoms 1   entry O          line   157 file /panfs/jay/groups/28/lever046/lever046/psi4conda/share/psi4/basis/6-31pgs.gbs 
    atoms 2-3 entry H          line    46 file /panfs/jay/groups/28/lever046/lever046/psi4conda/share/psi4/basis/6-31pgs.gbs 

  Reading orbitals from file /scratch.global/lever046/psi4/ps4_h2o_hf_nosmd_opt.h2o.2691793.180.npy, no projection.

  ==> Integral Setup <==

  DFHelper Memory: AOs need 0.001 GiB; user supplied 0.419 GiB. 
  Using in-core AOs.

  ==> MemDFJK: Density-Fitted J/K Matrices <==

    J tasked:                   Yes
    K tasked:                   Yes
    wK tasked:                   No
    OpenMP threads:               8
    Memory [MiB]:               429
    Algorithm:                 Core
    Schwarz Cutoff:           1E-12
    Mask sparsity (%):       0.0000
    Fitting Condition:        1E-10

   => Auxiliary Basis Set <=

  Basis Set: (6-31+G* AUX)
    Blend: HEAVY-AUG-CC-PVDZ-JKFIT
    Number of shells: 46
    Number of basis functions: 151
    Number of Cartesian functions: 151
    Spherical Harmonics?: false
    Max angular momentum: 3

  Minimum eigenvalue in the overlap matrix is 7.9246087450E-03.
  Reciprocal condition number of the overlap matrix is 1.3455547108E-03.
    Using symmetric orthogonalization.

  ==> Pre-Iterations <==

  SCF Guess: Orbitals guess was supplied from a previous computation.

   -------------------------------------------------------
    Irrep   Nso     Nmo     Nalpha   Nbeta   Ndocc  Nsocc
   -------------------------------------------------------
     A'        18      18       4       4       4       0
     A"         5       5       1       1       1       0
   -------------------------------------------------------
    Total      23      23       5       5       5       0
   -------------------------------------------------------

  ==> Iterations <==

                           Total Energy        Delta E     RMS |[F,P]|

   @DF-RHF iter   0:   -76.07769550892571   -7.60777e+01   4.88386e-02 
   @DF-RHF iter   1:   -75.80670780718594    2.70988e-01   6.97412e-03 ADIIS/DIIS
   @DF-RHF iter   2:   -75.81326270962177   -6.55490e-03   2.34453e-03 ADIIS/DIIS
   @DF-RHF iter   3:   -75.81404588463349   -7.83175e-04   7.11533e-04 ADIIS/DIIS
   @DF-RHF iter   4:   -75.81416176688506   -1.15882e-04   1.54747e-04 ADIIS/DIIS
   @DF-RHF iter   5:   -75.81417050846228   -8.74158e-06   2.74203e-05 DIIS
   @DF-RHF iter   6:   -75.81417082572750   -3.17265e-07   3.99492e-06 DIIS
   @DF-RHF iter   7:   -75.81417083276237   -7.03487e-09   5.54790e-07 DIIS
   @DF-RHF iter   8:   -75.81417083289179   -1.29418e-10   7.38516e-08 DIIS
   @DF-RHF iter   9:   -75.81417083289394   -2.14584e-12   1.13332e-08 DIIS
   @DF-RHF iter  10:   -75.81417083289395   -1.42109e-14   2.25460e-09 DIIS
  Energy and wave function converged.


  ==> Post-Iterations <==

    Orbital Energies [Eh]
    ---------------------

    Doubly Occupied:                                                      

       1Ap   -20.534517     2Ap    -1.522045     3Ap    -0.863057  
       4Ap    -0.631703     1App   -0.535189  

    Virtual:                                                              

       5Ap     0.134309     6Ap     0.208451     2App    0.247652  
       7Ap     0.250781     8Ap     0.439984     9Ap     0.487306  
      10Ap     1.216215    11Ap     1.345498     3App    1.399579  
      12Ap     1.510327    13Ap     1.564879    14Ap     1.796322  
      15Ap     1.949890     4App    1.968839     5App    2.012016  
      16Ap     3.029025    17Ap     3.567752    18Ap     4.302550  

    Final Occupation by Irrep:
             Ap   App 
    DOCC [     4,    1 ]
    NA   [     4,    1 ]
    NB   [     4,    1 ]

  @DF-RHF Final Energy:   -75.81417083289395

   => Energetics <=

    Nuclear Repulsion Energy =             12.1612268538067312
    One-Electron Energy =                -127.7777739316726269
    Two-Electron Energy =                  39.8023762449719527
    Total Energy =                        -75.8141708328939501

Computation Completed


Properties will be evaluated at   0.000000,   0.000000,   0.000000 [a0]

Properties computed using the SCF density matrix


 Multipole Moments:

[...]
         H           -0.620376604393     0.667202249615     0.000000000000     1.007825032230
         H           -0.372897994537    -0.831252867053     0.000000000000     1.007825032230

  Running in cs symmetry.

  Rotational constants: A =     29.31360  B =     14.50329  C =      9.70273 [cm^-1]
  Rotational constants: A = 878799.66666  B = 434797.70531  C = 290880.66606 [MHz]
  Nuclear repulsion =    9.283617380887991

  Charge       = 0
  Multiplicity = 1
  Electrons    = 10
  Nalpha       = 5
  Nbeta        = 5

  ==> Algorithm <==

  SCF Algorithm Type is DF.
  DIIS enabled.
  MOM disabled.
  Fractional occupation disabled.
  Guess Type is SAD.
  Energy threshold   = 1.00e-08
  Density threshold  = 1.00e-08
  Integral threshold = 1.00e-12

  ==> Primary Basis <==

  Basis Set: 6-31+G*
    Blend: 6-31+G*
    Number of shells: 12
    Number of basis functions: 23
    Number of Cartesian functions: 23
    Spherical Harmonics?: false
    Max angular momentum: 2

   => Loading Basis Set <=

    Name: (6-31+G* AUX)
    Role: JKFIT
    Keyword: DF_BASIS_SCF
    atoms 1   entry O          line   310 file /panfs/jay/groups/28/lever046/lever046/psi4conda/share/psi4/basis/heavy-aug-cc-pvdz-jkfit.gbs 
    atoms 2-3 entry H          line   116 file /panfs/jay/groups/28/lever046/lever046/psi4conda/share/psi4/basis/heavy-aug-cc-pvdz-jkfit.gbs 

  ==> Integral Setup <==

  DFHelper Memory: AOs need 0.001 GiB; user supplied 0.419 GiB. 
  Using in-core AOs.

  ==> MemDFJK: Density-Fitted J/K Matrices <==

    J tasked:                   Yes
    K tasked:                   Yes
    wK tasked:                   No
    OpenMP threads:               8
    Memory [MiB]:               429
    Algorithm:                 Core
    Schwarz Cutoff:           1E-12
    Mask sparsity (%):       0.0000
    Fitting Condition:        1E-10

   => Auxiliary Basis Set <=

  Basis Set: (6-31+G* AUX)
    Blend: HEAVY-AUG-CC-PVDZ-JKFIT
    Number of shells: 46
    Number of basis functions: 151
    Number of Cartesian functions: 151
    Spherical Harmonics?: false
    Max angular momentum: 3

  Minimum eigenvalue in the overlap matrix is 1.7287889282E-02.
  Reciprocal condition number of the overlap matrix is 3.2212598658E-03.
    Using symmetric orthogonalization.

  ==> Pre-Iterations <==

  SCF Guess: Superposition of Atomic Densities via on-the-fly atomic UHF (no occupation information).

   -------------------------
    Irrep   Nso     Nmo    
   -------------------------
     A'        18      18 
     A"         5       5 
   -------------------------
    Total      23      23
   -------------------------

  ==> Iterations <==

                           Total Energy        Delta E     RMS |[F,P]|

   @DF-RHF iter SAD:   -75.53675503233146   -7.55368e+01   0.00000e+00 
   @DF-RHF iter   1:   -75.94413709004593   -4.07382e-01   2.25755e-02 ADIIS/DIIS
   @DF-RHF iter   2:   -75.99408314472181   -4.99461e-02   1.40609e-02 ADIIS/DIIS
   @DF-RHF iter   3:   -76.01718130918258   -2.30982e-02   1.69825e-03 ADIIS/DIIS
   @DF-RHF iter   4:   -76.01770614127102   -5.24832e-04   2.42728e-04 ADIIS/DIIS
   @DF-RHF iter   5:   -76.01772232022134   -1.61790e-05   4.30977e-05 DIIS
   @DF-RHF iter   6:   -76.01772317552044   -8.55299e-07   9.35261e-06 DIIS
   @DF-RHF iter   7:   -76.01772322500764   -4.94872e-08   1.25371e-06 DIIS
   @DF-RHF iter   8:   -76.01772322575813   -7.50489e-10   2.13861e-07 DIIS
   @DF-RHF iter   9:   -76.01772322577872   -2.05915e-11   5.29020e-08 DIIS
   @DF-RHF iter  10:   -76.01772322577965   -9.23706e-13   6.42135e-09 DIIS
  Energy and wave function converged.


  ==> Post-Iterations <==

    Orbital Energies [Eh]
    ---------------------

    Doubly Occupied:                                                      

       1Ap   -20.578242     2Ap    -1.360938     3Ap    -0.731859  
       4Ap    -0.582794     1App   -0.509438  

    Virtual:                                                              

       5Ap     0.146634     6Ap     0.219024     7Ap     0.250782  
       2App    0.252561     8Ap     0.359525     9Ap     0.387625  
      10Ap     1.247859    11Ap     1.347761    12Ap     1.389868  
       3App    1.404678    13Ap     1.408933    14Ap     1.473771  
      15Ap     2.010508     4App    2.015218     5App    2.054732  
      16Ap     2.636945    17Ap     3.038858    18Ap     4.107781  

    Final Occupation by Irrep:
             Ap   App 
    DOCC [     4,    1 ]
    NA   [     4,    1 ]
    NB   [     4,    1 ]

  @DF-RHF Final Energy:   -76.01772322577965

   => Energetics <=

    Nuclear Repulsion Energy =              9.2836173808879909
    One-Electron Energy =                -123.0761426941269576
    Two-Electron Energy =                  37.7748020874593209
    Total Energy =                        -76.0177232257796476

Computation Completed


Properties will be evaluated at   0.000000,   0.000000,   0.000000 [a0]

Properties computed using the SCF density matrix


 Multipole Moments:

 ------------------------------------------------------------------------------------
     Multipole            Electronic (a.u.)      Nuclear  (a.u.)        Total (a.u.)
 ------------------------------------------------------------------------------------

 L = 1.  Multiply by 2.5417464519 to convert [e a0] to [Debye]
 Dipole X            :          0.0437861           -0.9308639           -0.8870778
 Dipole Y            :          0.0072331           -0.1537428           -0.1465096
 Dipole Z            :          0.0000000            0.0000000            0.0000000
 Magnitude           :                                                    0.8990952

 ------------------------------------------------------------------------------------

*** tstop() called on cn0050 at Tue Apr 30 17:41:15 2024
Module time:
	user time   =       2.88 seconds =       0.05 minutes
	system time =       0.29 seconds =       0.00 minutes
	total time  =          0 seconds =       0.00 minutes
Total time:
	user time   =      59.72 seconds =       1.00 minutes
	system time =       6.62 seconds =       0.11 minutes
	total time  =         10 seconds =       0.17 minutes

*** tstart() called on cn0050
*** at Tue Apr 30 17:41:15 2024


         ------------------------------------------------------------
                                   SCF HESS                          
                          Rob Parrish, Justin Turney,                
                       Andy Simmonett, and Alex Sokolov              
         ------------------------------------------------------------

  ==> Geometry <==

    Molecular point group: cs
    Full point group: Cs

    Geometry (in Angstrom), charge = 0, multiplicity = 1:

       Center              X                  Y                   Z               Mass       
    ------------   -----------------  -----------------  -----------------  -----------------
         O            0.062585329681     0.010336680297     0.000000000000    15.994914619570
         H           -0.620376604393     0.667202249615     0.000000000000     1.007825032230
         H           -0.372897994537    -0.831252867053     0.000000000000     1.007825032230

  Nuclear repulsion =    9.283617380887991

  ==> Basis Set <==

  Basis Set: 6-31+G*
    Blend: 6-31+G*
    Number of shells: 12
    Number of basis functions: 23
    Number of Cartesian functions: 23
    Spherical Harmonics?: false
    Max angular momentum: 2

  ==> DFJKGrad: Density-Fitted SCF Gradients <==

    Gradient:                    2
    J tasked:                  Yes
    K tasked:                  Yes
    wK tasked:                  No
    OpenMP threads:              8
    Integrals threads:           8
    Memory [MiB]:              429
    Schwarz Cutoff:          1E-12
    Fitting Condition:       1E-10

   => Auxiliary Basis Set <=

  Basis Set: (6-31+G* AUX)
    Blend: HEAVY-AUG-CC-PVDZ-JKFIT
    Number of shells: 46
    Number of basis functions: 151
    Number of Cartesian functions: 151
    Spherical Harmonics?: false
    Max angular momentum: 3

  DFHelper Memory: AOs need 0.001 GiB; user supplied 0.503 GiB. 
  Using in-core AOs.

  ==> MemDFJK: Density-Fitted J/K Matrices <==

    J tasked:                   Yes
    K tasked:                   Yes
    wK tasked:                   No
    OpenMP threads:               8
    Memory [MiB]:               514
    Algorithm:                 Core
    Schwarz Cutoff:           1E-12
    Mask sparsity (%):       0.0000
    Fitting Condition:        1E-10

   => Auxiliary Basis Set <=

  Basis Set: (6-31+G* AUX)
    Blend: HEAVY-AUG-CC-PVDZ-JKFIT
    Number of shells: 46
    Number of basis functions: 151
    Number of Cartesian functions: 151
    Spherical Harmonics?: false
    Max angular momentum: 3


   ==> Coupled-Perturbed RHF Solver <==

    Maxiter             =         100
    Convergence         =   1.000E-06
    Number of equations =           9
   -----------------------------------------------------
     Iter   Residual RMS      Max RMS  Remain  Time [s]
   -----------------------------------------------------
        1      5.634e-01    7.909e-01       9         0
        2      1.324e-01    1.636e-01       9         0
        3      3.201e-02    4.537e-02       9         0
        4      4.479e-03    6.467e-03       9         0
        5      8.389e-04    1.099e-03       9         0
        6      1.524e-04    2.106e-04       9         0
        7      2.334e-05    4.058e-05       9         0
        8      4.766e-06    8.910e-06       8         0
        9      9.966e-07    1.897e-06       4         0
       10      3.021e-07    1.826e-07       0         0
  ## Total Hessian (Symmetry 0) ##
  Irrep: 1 Size: 9 x 9

                 1                   2                   3                   4                   5

    1     0.53323623363848    -0.04336667938096     0.00000000000000    -0.35089768210727     0.23498937766217
    2    -0.04336667938096     0.78857947301221    -0.00000000000000     0.30473827006044    -0.31001928305724
    3     0.00000000000000    -0.00000000000000    -0.00000523655641    -0.00000000000000     0.00000000000000
    4    -0.35089768210727     0.30473827006044    -0.00000000000000     0.33156949859618    -0.27810949378841
    5     0.23498937766217    -0.31001928305724     0.00000000000000    -0.27810949378841     0.33925602647220
    6    -0.00000000000000     0.00000000000000     0.00000422457453     0.00000000000000    -0.00000000000000
    7    -0.18233855158462    -0.26137159056944    -0.00000000000000     0.01932818367694     0.04312011607423
    8    -0.19162269831485    -0.47856018985198    -0.00000000000000    -0.02662877622621    -0.02923674346149
    9    -0.00000000000000    -0.00000000000000     0.00000101198566    -0.00000000000000    -0.00000000000000

                 6                   7                   8                   9

    1    -0.00000000000000    -0.18233855158462    -0.19162269831485    -0.00000000000000
    2     0.00000000000000    -0.26137159056944    -0.47856018985198    -0.00000000000000
    3     0.00000422457453    -0.00000000000000    -0.00000000000000     0.00000101198566
    4     0.00000000000000     0.01932818367694    -0.02662877622621    -0.00000000000000
    5    -0.00000000000000     0.04312011607423    -0.02923674346149    -0.00000000000000
    6    -0.00000530564559    -0.00000000000000    -0.00000000000000     0.00000108107072
    7    -0.00000000000000     0.16301036794806     0.21825147453049     0.00000000000000
    8    -0.00000000000000     0.21825147453049     0.50779693312142     0.00000000000000
    9     0.00000108107072     0.00000000000000     0.00000000000000    -0.00000209305718




*** tstop() called on cn0050 at Tue Apr 30 17:41:16 2024
Module time:
	user time   =       5.68 seconds =       0.09 minutes
	system time =       0.43 seconds =       0.01 minutes
	total time  =          1 seconds =       0.02 minutes
Total time:
	user time   =      65.43 seconds =       1.09 minutes
	system time =       7.05 seconds =       0.12 minutes
	total time  =         11 seconds =       0.18 minutes


  ==> Harmonic Vibrational Analysis <==

  non-mass-weighted Hessian:       Symmetric? True   Hermitian? True   Lin Dep Dim?  0 (0)
  projection of translations (True) and rotations (True) removed 6 degrees of freedom (6)
  total projector:                 Symmetric? True   Hermitian? True   Lin Dep Dim?  6 (6)
  mass-weighted Hessian:           Symmetric? True   Hermitian? True   Lin Dep Dim?  0 (0)
  pre-proj  low-frequency mode:    0.0000i [cm^-1]
  pre-proj  low-frequency mode:    0.0000i [cm^-1]
  pre-proj  low-frequency mode:    0.0000i [cm^-1]
  pre-proj  low-frequency mode:    0.0000i [cm^-1]
  pre-proj  low-frequency mode:    0.0020  [cm^-1]
  pre-proj  low-frequency mode:    0.0153  [cm^-1]
  pre-proj  all modes:['12.3312i' '10.4614i' '7.1122i' '0.0145i' '0.0020' '0.0153' '1796.7456'
 '4071.1175' '4190.2747']
  projected mass-weighted Hessian: Symmetric? True   Hermitian? True   Lin Dep Dim?  6 (6)
  post-proj low-frequency mode:    0.0000i [cm^-1] (TR)
  post-proj low-frequency mode:    0.0000i [cm^-1] (TR)
  post-proj low-frequency mode:    0.0000i [cm^-1] (TR)
  post-proj low-frequency mode:    0.0000i [cm^-1] (TR)
  post-proj low-frequency mode:    0.0000i [cm^-1] (TR)
  post-proj low-frequency mode:    0.0000  [cm^-1] (TR)
  post-proj  all modes:['0.0000i' '0.0000i' '0.0000i' '0.0000i' '0.0000i' '0.0000' '1796.7456'
 '4071.1175' '4190.2747']

  Vibration                       7                   8                   9           
  Freq [cm^-1]                1796.7456           4071.1175           4190.2747       
  Irrep                           Ap                  Ap                  Ap          
  Reduced mass [u]              1.0828              1.0451              1.0839        
  Force const [mDyne/A]         2.0595             10.2054             11.2127        
  Turning point v=0 [a0]        0.2488              0.1682              0.1628        
  RMS dev v=0 [a0 u^1/2]        0.1830              0.1216              0.1199        
  IR activ [km/mol]            119.3347            23.3960             87.2799        
  Char temp [K]               2585.1169           5857.4316           6028.8723       
  ----------------------------------------------------------------------------------
      1   O               -0.07 -0.01 -0.00   -0.05 -0.01 -0.00    0.01 -0.07  0.00   
      2   H                0.48  0.51  0.00    0.49 -0.51  0.00   -0.51  0.49 -0.00   
      3   H                0.62 -0.33  0.00    0.30  0.64  0.00    0.32  0.63 -0.00   

  ==> Thermochemistry Components <==

  Entropy, S
    Electronic S                             0.000 [cal/(mol K)]        0.000 [J/(mol K)]       0.00000000 [mEh/K] (multiplicity = 1)
    Translational S                         34.608 [cal/(mol K)]      144.801 [J/(mol K)]       0.05515177 [mEh/K] (mol. weight = 18.0106 [u], P = 101325.00 [Pa])
    Rotational S                            11.746 [cal/(mol K)]       49.144 [J/(mol K)]       0.01871791 [mEh/K] (symmetry no. = 1)
    Vibrational S                            0.003 [cal/(mol K)]        0.014 [J/(mol K)]       0.00000526 [mEh/K]
  Total S                                   46.357 [cal/(mol K)]      193.959 [J/(mol K)]       0.07387494 [mEh/K]
  Correction S                               0.000 [cal/(mol K)]        0.000 [J/(mol K)]       0.00000000 [mEh/K]

  Constant volume heat capacity, Cv
    Electronic Cv                            0.000 [cal/(mol K)]        0.000 [J/(mol K)]       0.00000000 [mEh/K]
    Translational Cv                         2.981 [cal/(mol K)]       12.472 [J/(mol K)]       0.00475022 [mEh/K]
    Rotational Cv                            2.981 [cal/(mol K)]       12.472 [J/(mol K)]       0.00475022 [mEh/K]
    Vibrational Cv                           0.026 [cal/(mol K)]        0.107 [J/(mol K)]       0.00004087 [mEh/K]
  Total Cv                                   5.987 [cal/(mol K)]       25.051 [J/(mol K)]       0.00954130 [mEh/K]
  Correction Cv                              0.000 [cal/(mol K)]        0.000 [J/(mol K)]       0.00000000 [mEh/K]

  Constant pressure heat capacity, Cp
    Electronic Cp                            0.000 [cal/(mol K)]        0.000 [J/(mol K)]       0.00000000 [mEh/K]
    Translational Cp                         4.968 [cal/(mol K)]       20.786 [J/(mol K)]       0.00791703 [mEh/K]
    Rotational Cp                            2.981 [cal/(mol K)]       12.472 [J/(mol K)]       0.00475022 [mEh/K]
    Vibrational Cp                           0.026 [cal/(mol K)]        0.107 [J/(mol K)]       0.00004087 [mEh/K]
  Total Cp                                   7.974 [cal/(mol K)]       33.365 [J/(mol K)]       0.01270811 [mEh/K]
  Correction Cp                              0.000 [cal/(mol K)]        0.000 [J/(mol K)]       0.00000000 [mEh/K]

  ==> Thermochemistry Energy Analysis <==

  Raw electronic energy, E_e
  Total E_e, Electronic energy at well bottom                                           -76.01772323 [Eh]

  Zero-point vibrational energy, ZPVE = Sum_i omega_i / 2,  E_0 = E_e + ZPVE
    Vibrational ZPVE                        14.379 [kcal/mol]       60.161 [kJ/mol]       0.02291412 [Eh]        5029.069 [cm^-1]
  Correction ZPVE to E_e                    14.379 [kcal/mol]       60.161 [kJ/mol]       0.02291412 [Eh]        5029.069 [cm^-1]
  Total E_0, Enthalpy at 0 [K]                                                          -75.99480910 [Eh]
  *** Absolute enthalpy, not an enthalpy of formation ***

  Thermal (internal) energy, E (includes ZPVE and finite-temperature corrections)
    Electronic contrib to E beyond E_e       0.000 [kcal/mol]        0.000 [kJ/mol]       0.00000000 [Eh]
    Translational contrib to E               0.889 [kcal/mol]        3.718 [kJ/mol]       0.00141628 [Eh]
    Rotational contrib to E                  0.889 [kcal/mol]        3.718 [kJ/mol]       0.00141628 [Eh]
    Vibrational contrib to E                14.380 [kcal/mol]       60.165 [kJ/mol]       0.02291553 [Eh]
  Correction E                              16.157 [kcal/mol]       67.602 [kJ/mol]       0.02574808 [Eh]
  Total E, Thermal (internal) energy at  298.15 [K]                                     -75.99197514 [Eh]

  Enthalpy, H_trans = E_trans + k_B * T = E_trans + P * V
    Electronic contrib to H beyond E_e       0.000 [kcal/mol]        0.000 [kJ/mol]       0.00000000 [Eh]
    Translational contrib to H               1.481 [kcal/mol]        6.197 [kJ/mol]       0.00236046 [Eh]
    Rotational contrib to H                  0.889 [kcal/mol]        3.718 [kJ/mol]       0.00141628 [Eh]
    Vibrational contrib to H                14.380 [kcal/mol]       60.165 [kJ/mol]       0.02291553 [Eh]
  Correction H                              16.750 [kcal/mol]       70.081 [kJ/mol]       0.02669227 [Eh]
  Total H, Enthalpy at  298.15 [K]                                                      -75.99103096 [Eh]
  *** Absolute enthalpy, not an enthalpy of formation ***

  Gibbs free energy, G = H - T * S
    Electronic contrib to G beyond E_e       0.000 [kcal/mol]        0.000 [kJ/mol]       0.00000000 [Eh]
    Translational contrib to G              -8.837 [kcal/mol]      -36.975 [kJ/mol]      -0.01408304 [Eh]
    Rotational contrib to G                 -2.613 [kcal/mol]      -10.934 [kJ/mol]      -0.00416447 [Eh]
    Vibrational contrib to G                14.379 [kcal/mol]       60.161 [kJ/mol]       0.02291396 [Eh]
  Correction G                               2.928 [kcal/mol]       12.252 [kJ/mol]       0.00466645 [Eh]
  Total G, Gibbs energy at  298.15 [K]                                                  -76.01305677 [Eh]
  *** Absolute Gibbs energy, not a free energy of formation ***


    Psi4 stopped on: Tuesday, 30 April 2024 05:41PM
    Psi4 wall time for execution: 0:00:12.92

*** Psi4 exiting successfully. Buy a developer a beer!
