/home/lever046/lever046/psi4conda/etc/profile.d/conda.cshnconda: No such file or directory.
----- GAMESS execution script 'rungms' -----
This job is running on host cn0282
under operating system Linux at Fri May 17 14:28:49 CDT 2024
SLURM has assigned the following compute nodes to this run:
cn0282
Available scratch disk space (Kbyte units) at beginning of the job is
Filesystem           1K-blocks      Used Available Use% Mounted on
tmpfs                  9982804     36892   9929528   1% /tmp
GAMESS temporary binary files will be written to /tmp
GAMESS supplementary output files will be written to /scratch.global/lever046/gamess/29714843
Copying input file gms_bzorig_b3lyp_nosmd_ram.inp to your run's scratch directory...
cp gms_bzorig_b3lyp_nosmd_ram.inp /tmp/gms_bzorig_b3lyp_nosmd_ram.F05
unset echo
setenv I_MPI_WAIT_MODE enable
setenv I_MPI_PIN disable
setenv I_MPI_DEBUG 0
setenv I_MPI_STATS 0
setenv I_MPI_DAT_LIBRARY libdat2.so
setenv I_MPI_SHM_LMT shm
unset echo
MPI kickoff will run GAMESS on 16 cores in 1 nodes.
The binary to be executed is /common/software/install/migrated/gamess/october_2019/gamess.00.x
MPI will run 16 compute processes and 16 data servers,
    placing 16 of each process type onto each node.
The scratch disk space on each node is /tmp, with free space
Filesystem           1K-blocks      Used Available Use% Mounted on
tmpfs                  9982804     37020   9929400   1% /tmp
setenv I_MPI_HYDRA_ENV all
setenv I_MPI_PERHOST 32
unset echo
if ( impi == impi ) then
mpirun -hostfile /tmp/gms_bzorig_b3lyp_nosmd_ram.processes.mpd -np 32 /common/software/install/migrated/gamess/october_2019/gamess.00.x
srun: Job 29714843 step creation temporarily disabled, retrying (Requested nodes are busy)
srun: Step created for job 29714843
          ******************************************************
          *         GAMESS VERSION = 30 SEP 2019 (R2)          *
          *             FROM IOWA STATE UNIVERSITY             *
          * M.W.SCHMIDT, K.K.BALDRIDGE, J.A.BOATZ, S.T.ELBERT, *
          *   M.S.GORDON, J.H.JENSEN, S.KOSEKI, N.MATSUNAGA,   *
          *          K.A.NGUYEN, S.J.SU, T.L.WINDUS,           *
          *       TOGETHER WITH M.DUPUIS, J.A.MONTGOMERY       *
          *         J.COMPUT.CHEM.  14, 1347-1363(1993)        *
          **************** 64 BIT INTEL VERSION ****************

  SINCE 1993, STUDENTS AND POSTDOCS WORKING AT IOWA STATE UNIVERSITY
  AND ALSO IN THEIR VARIOUS JOBS AFTER LEAVING ISU HAVE MADE IMPORTANT
  CONTRIBUTIONS TO THE CODE:
     IVANA ADAMOVIC, CHRISTINE AIKENS, YURI ALEXEEV, POOJA ARORA,
     ANDREY ASADCHEV, ROB BELL, PRADIPTA BANDYOPADHYAY, JONATHAN BENTZ,
     COLLEEN BERTONI, BRETT BODE, KURT BRORSEN, CALEB CARLIN, GALINA CHABAN,
     WEI CHEN, CHEOL HO CHOI, PAUL DAY, ALBERT DEFUSCO, NUWAN DESILVA,
     TIM DUDLEY, DMITRI FEDOROV, ALEX FINDLATER, GRAHAM FLETCHER, 
     MARK FREITAG, KURT GLAESEMANN, EMILIE B GUIDEZ, ANASTASIA GUNINA, 
     DAN KEMP, SAROM SOK LEANG, GRANT MERRILL,
     NORIYUKI MINEZAWA, JONATHAN MULLIN,
     TAKESHI NAGATA, SEAN NEDD, HEATHER NETZLOFF, BOSILJKA NJEGIC, RYAN OLSON,
     MIKE PAK, BUU PHAM, DAVID POOLE,
     SPENCER PRUITT, LUKE ROSKOP, TOSAPORN SATTASATHUCHANA,
     JIM SHOEMAKER, LYUDMILA SLIPCHENKO,
     TONY SMITH, JIE SONG, TETSUYA TAKETSUGU, SIMON WEBB,
     JORGE LUIS GALVEZ VALLEJO, PENG XU, SOOHAENG YOO,
     FEDERICO ZAHARIEV

  ADDITIONAL CODE HAS BEEN PROVIDED BY COLLABORATORS IN OTHER GROUPS:
     IOWA STATE UNIVERSITY:
          JOE IVANIC, AARON WEST, LAIMUTIS BYTAUTAS, KLAUS RUEDENBERG
     UNIVERSITY OF TOKYO: KIMIHIKO HIRAO, TAKAHITO NAKAJIMA,
          TAKAO TSUNEDA, MUNEAKI KAMIYA, SUSUMU YANAGISAWA,
          KIYOSHI YAGI, MAHITO CHIBA, SEIKEN TOKURA, NAOAKI KAWAKAMI
     UNIVERSITY OF AARHUS: FRANK JENSEN
     UNIVERSITY OF IOWA: VISVALDAS KAIRYS, HUI LI
     NATIONAL INST. OF STANDARDS AND TECHNOLOGY: WALT STEVENS, DAVID GARMER
     UNIVERSITY OF PISA: BENEDETTA MENNUCCI, JACOPO TOMASI
     UNIVERSITY OF MEMPHIS: HENRY KURTZ, PRAKASHAN KORAMBATH
     UNIVERSITY OF ALBERTA: TOBY ZENG, MARIUSZ KLOBUKOWSKI
     UNIVERSITY OF NEW ENGLAND: MARK SPACKMAN
     MIE UNIVERSITY: HIROAKI UMEDA
     NAT. INST. OF ADVANCED INDUSTRIAL SCIENCE AND TECHNOLOGY: KAZUO KITAURA
     MICHIGAN STATE UNIVERSITY:
          KAROL KOWALSKI, MARTA WLOCH, JEFFREY GOUR, JESSE LUTZ,
          WEI LI, JUN SHEN, J. EMILIANO DEUSTUA, PIOTR PIECUCH
     UNIVERSITY OF MINNESOTA:
          ANDREW SAND, PRACHI SHARMA, YINAN SHU
     UNIVERSITY OF SILESIA: MONIKA MUSIAL, STANISLAW KUCHARSKI
     FACULTES UNIVERSITAIRES NOTRE-DAME DE LA PAIX:
          OLIVIER QUINET, BENOIT CHAMPAGNE
     UNIVERSITY OF CALIFORNIA - SANTA BARBARA: BERNARD KIRTMAN
     INSTITUTE FOR MOLECULAR SCIENCE:
          KAZUYA ISHIMURA, MICHIO KATOUDA, AND SHIGERU NAGASE
     UNIVERSITY OF NOTRE DAME: ANNA POMOGAEVA, DAN CHIPMAN
     KYUSHU UNIVERSITY:
          HARUYUKI NAKANO,
          FENG LONG GU, JACEK KORCHOWIEC, MARCIN MAKOWSKI, AND YURIKO AOKI,
          HIROTOSHI MORI AND EISAKU MIYOSHI
     PENNSYLVANIA STATE UNIVERSITY:
          TZVETELIN IORDANOV, CHET SWALINA, JONATHAN SKONE,
          SHARON HAMMES-SCHIFFER
     WASEDA UNIVERSITY:
          MASATO KOBAYASHI, TOMOKO AKAMA, TSUGUKI TOUMA,
          TAKESHI YOSHIKAWA, YASUHIRO IKABATA, JUNJI SEINO,
          YUYA NAKAJIMA, HIROMI NAKAI
     NANJING UNIVERSITY: SHUHUA LI
     UNIVERSITY OF NEBRASKA:
          PEIFENG SU, DEJUN SI, NANDUN THELLAMUREGE, YALI WANG, HUI LI
     UNIVERSITY OF ZURICH: ROBERTO PEVERATI, KIM BALDRIDGE
     N. COPERNICUS UNIVERSITY AND JACKSON STATE UNIVERSITY:
          MARIA BARYSZ
     UNIVERSITY OF COPENHAGEN: Jimmy Kromann, CASPER STEINMANN
     TOKYO INSTITUTE OF TECHNOLOGY: HIROYA NAKATA
     NAGOYA UNIVERSITY: YOSHIO NISHIMOTO, STEPHAN IRLE
     MOSCOW STATE UNIVERSITY: VLADIMIR MIRONOV
     A.N.NESMEYANOV INSTITUTE OF ORGANOELEMENT COMPOUNDS OF RUSSIAN ACADEMY OF SCIENCES:
          IGOR S. GERASIMOV
     JOHANNES KEPLER UNIVERSITY LINZ:
          CHRISTIAN FRIEDL


 PARALLEL VERSION RUNNING ON       16 PROCESSORS IN        1 NODES.

 EXECUTION OF GAMESS BEGUN Fri May 17 14:28:54 2024

            ECHO OF THE FIRST FEW INPUT CARDS -
 INPUT CARD> $BASIS GBASIS=N31 NGAUSS=6 NPFUNC=1 DIFFSP=.t. $END                            
 INPUT CARD> $CONTRL SCFTYP=RHF RUNTYP=RAMAN ICHARG=0 MULT=1 MAXIT=200 $END                 
 INPUT CARD> $CONTRL DFTTYP=B3LYP ISPHER=1 $END                                             
 INPUT CARD> $FORCE METHOD=SEMINUM $END                                                     
 INPUT CARD> $SCF DIRSCF=.t. DAMP=.t. $END                                                  
 INPUT CARD> $SYSTEM MWORDS=100 $END                                                        
 INPUT CARD> $DATA                                                                          
 INPUT CARD> Title                                                                          
 INPUT CARD> C1                                                                             
 INPUT CARD> O           8.0   2.7870899748   2.7869411988   0.2954048690                   
 INPUT CARD> O           8.0   0.6158922338   2.1312735546   0.5277004696                   
 INPUT CARD> N           7.0   0.1006018416  -0.5676714395  -0.3093096461                   
 INPUT CARD> C           6.0   1.4863111939  -0.6700700005  -0.1005065814                   
 INPUT CARD> C           6.0   2.3354226986   0.4468318863   0.1450415820                   
 INPUT CARD> C           6.0  -2.2149152777  -0.2863491489   0.3052385731                   
 INPUT CARD> C           6.0   2.0718004843  -1.9427001936  -0.2827144094                   
 INPUT CARD> C           6.0   3.7350264036   0.2477933439   0.1929173886                   
 INPUT CARD> C           6.0  -0.7834172039  -0.4062230222   0.6088169735                   
 INPUT CARD> C           6.0   3.4524969303  -2.1186640113  -0.2020750371                   
 INPUT CARD> C           6.0   4.2947555100  -1.0175739354   0.0321288014                   
 INPUT CARD> C           6.0  -3.1359981305  -0.1527983017   1.3607689537                   
 INPUT CARD> C           6.0  -2.6855837113  -0.2893777787  -1.0233470866                   
 INPUT CARD> C           6.0  -4.5077762761  -0.0289275970   1.1039126245                   
 INPUT CARD> C           6.0  -4.0506020678  -0.1650717888  -1.2928838486                   
 INPUT CARD> C           6.0  -4.9397885811  -0.0373932875  -0.2214349417                   
 INPUT CARD> C           6.0   1.7981255772   1.8059111404   0.3358644687                   
 INPUT CARD> H           1.0   1.4175897377  -2.7775268461  -0.5009265426                   
 INPUT CARD> H           1.0   4.3663338950   1.1085545306   0.3628034855                   
 INPUT CARD> H           1.0  -0.5089437245  -0.3457160388   1.6662701883                   
 INPUT CARD> H           1.0   3.8742582695  -3.1085354965  -0.3340797845                   
 INPUT CARD> H           1.0   5.3686434428  -1.1475494999   0.0813256552                   
 INPUT CARD> H           1.0  -2.7829131392  -0.1414670425   2.3863477827                   
 INPUT CARD> H           1.0  -1.9687400286  -0.3852575019  -1.8289982383                   
 INPUT CARD> H           1.0  -5.2185791143   0.0746393042   1.9127862982                   
 INPUT CARD> H           1.0  -4.4183079849  -0.1624611517  -2.3104283572                   
 INPUT CARD> CL         17.0  -6.7232617884   0.1273929920  -0.5704218160                   
 INPUT CARD> H           1.0   2.3749788352   3.6539161317   0.4468981761                   
 INPUT CARD> $END                                                                           
 INPUT CARD> $GRAD                                                                          
 INPUT CARD>E=    -1204.2543296726  GMAX=   0.0000617  GRMS=   0.0000151                    
 INPUT CARD>O            8.    1.3103989419E-05    2.8079833808E-05    4.4123674254E-06     
 INPUT CARD>O            8.   -6.1732463147E-05    1.3547727957E-05    6.4146510777E-07     
 INPUT CARD>N            7.   -1.6142811537E-05    8.3024713932E-06   -1.6030610713E-05     
 INPUT CARD>C            6.   -3.1171584897E-06   -1.3004560040E-06   -4.9896799954E-06     
 INPUT CARD>C            6.    1.9897102346E-05   -1.8280912372E-06    6.9398583539E-07     
 INPUT CARD>C            6.   -1.3402500098E-05   -7.2033566430E-06   -3.3189222698E-05     
 INPUT CARD>C            6.    2.1357815024E-06    1.1468503471E-06    1.6266690567E-05     
 INPUT CARD>C            6.   -2.5389292294E-05    6.2055206251E-06   -1.7615277201E-06     
 INPUT CARD>C            6.   -2.7415427964E-06   -6.3280054674E-06    1.0221377900E-05     
 INPUT CARD>C            6.    2.9712177579E-06   -2.6118622023E-06    2.9186079433E-06     
  100000000 WORDS OF MEMORY AVAILABLE

     BASIS OPTIONS
     -------------
     GBASIS=N31          IGAUSS=       6      POLAR=POPN31  
     NDFUNC=       0     NFFUNC=       0     DIFFSP=       T
     NPFUNC=       1      DIFFS=       F     BASNAM=        


     RUN TITLE
     ---------
  Title                                                                          

 THE POINT GROUP OF THE MOLECULE IS C1      
 THE ORDER OF THE PRINCIPAL AXIS IS     0

 ATOM      ATOMIC                      COORDINATES (BOHR)
           CHARGE         X                   Y                   Z
 O           8.0     5.2668363555        5.2665552096        0.5582342578
 O           8.0     1.1638675598        4.0275230231        0.9972092911
 N           7.0     0.1901099145       -1.0727434717       -0.5845104765
 C           6.0     2.8087208890       -1.2662486935       -0.1899298988
 C           6.0     4.4133089659        0.8443898277        0.2740888468
 C           6.0    -4.1855829609       -0.5411214282        0.5768172640
 C           6.0     3.9151352166       -3.6711710422       -0.5342527665
 C           6.0     7.0581764597        0.4682615216        0.3645610027
 C           6.0    -1.4804438494       -0.7676502019        1.1504972566
 C           6.0     6.5242731717       -4.0036944414       -0.3818664491
 C           6.0     8.1159110982       -1.9229359102        0.0607146310
 C           6.0    -5.9261771647       -0.2887469216        2.5714804551
 C           6.0    -5.0750173314       -0.5468447087       -1.9338455840
 C           6.0    -8.5184619758       -0.0546652318        2.0860923747
 C           6.0    -7.6545279934       -0.3119404491       -2.4431962078
 C           6.0    -9.3348468556       -0.0706630672       -0.4184513639
 C           6.0     3.3979646324        3.4126772135        0.6346918149
 H           1.0     2.6788561673       -5.2487646627       -0.9466139055
 H           1.0     8.2511746325        2.0948643053        0.6855991750
 H           1.0    -0.9617641825       -0.6533085829        3.1487940774
 H           1.0     7.3212865350       -5.8742803115       -0.6313192507
 H           1.0    10.1452650327       -2.1685541122        0.1536832041
 H           1.0    -5.2589432807       -0.2673339466        4.5095434207
 H           1.0    -3.7203791951       -0.7280311133       -3.4563055024
 H           1.0    -9.8616845713        0.1410478329        3.6146419767
 H           1.0    -8.3493914208       -0.3070070604       -4.3660765094
 CL         17.0   -12.7051225238        0.2407378476       -1.0779409297
 H           1.0     4.4880592252        6.9049002710        0.8445150972

          INTERNUCLEAR DISTANCES (ANGS.)
          ------------------------------

                1 O          2 O          3 N          4 C          5 C     

   1 O       0.0000000    2.2799037 *  4.3400834    3.7147944    2.3880377 *
   2 O       2.2799037 *  0.0000000    2.8723534 *  2.9999665 *  2.4373257 *
   3 N       4.3400834    2.8723534 *  0.0000000    1.4050888 *  2.4960121 *
   4 C       3.7147944    2.9999665 *  1.4050888 *  0.0000000    1.4243434 *
   5 C       2.3880377 *  2.4373257 *  2.4960121 *  1.4243434 *  0.0000000  
   6 C       5.8707126    3.7293243    2.4121425 *  3.7431201    4.6118102  
   7 C       4.8182329    4.4015569    2.4035464 *  1.4126518 *  2.4417894 *
   8 C       2.7122609 *  3.6590402    3.7584913    2.4464854 *  1.4144960 *
   9 C       4.8003173    2.8988852 *  1.2847224 *  2.3925765 *  3.2664893  
  10 C       4.9754613    5.1614792    3.6948989    2.4443050 *  2.8195946 *
  11 C       4.1008176    4.8677373    4.2320110    2.8329685 *  2.4487178 *
  12 C       6.6977639    4.4707571    3.6656325    4.8753092    5.6368427  
  13 C       6.4150606    4.3777899    2.8896586 *  4.2896699    5.2074602  
  14 C       7.8611625    5.5902118    4.8502156    6.1474201    6.9264098  
  15 C       7.6151871    5.5103447    4.2850903    5.6863165    6.5744481  
  16 C       8.2430966    6.0108160    5.0689696    6.4583018    7.3005122  
  17 C       1.3935952 *  1.2411033 *  2.9886001 *  2.5334030 *  1.4738378 *
  18 H       5.7855837    5.0790859    2.5796579 *  2.1462603 *  3.4141150  
  19 H       2.3055446 *  3.8908814    4.6322715    3.4165322    2.1470672 *
  20 H       4.7493843    2.9490803 *  2.0793570 *  2.6847249 *  3.3215492  
  21 H       6.0278380    6.2301857    4.5494051    3.4209592    3.9036149  
  22 H       4.7106757    5.7912499    5.3142372    3.9158081    3.4273225  
  23 H       6.6311803    4.4913024    3.9702491    4.9689176    5.6184438  
  24 H       6.0986763    4.3089768    2.5738889 *  3.8737812    4.8078085  
  25 H       8.6060003    6.3395002    5.8003413    7.0401345    7.7670066  
  26 H       8.2101827    6.2176656    4.9587516    6.3250256    7.2120350  
  27 CL      9.9131046    7.6866502    6.8641393    8.2615892    9.0925076  
  28 H       0.9718186 *  2.3279508 *  4.8545281    4.4481725    3.2215014  

                6 C          7 C          8 C          9 C         10 C     

   1 O       5.8707126    4.8182329    2.7122609 *  4.8003173    4.9754613  
   2 O       3.7293243    4.4015569    3.6590402    2.8988852 *  5.1614792  
   3 N       2.4121425 *  2.4035464 *  3.7584913    1.2847224 *  3.6948989  
   4 C       3.7431201    1.4126518 *  2.4464854 *  2.3925765 *  2.4443050 *
   5 C       4.6118102    2.4417894 *  1.4144960 *  3.2664893    2.8195946 *
   6 C       0.0000000    4.6330465    5.9749251    1.4682358 *  5.9778178  
   7 C       4.6330465    0.0000000    2.7912019 *  3.3627159    1.3941982 *
   8 C       5.9749251    2.7912019 *  0.0000000    4.5844348    2.4157737 *
   9 C       1.4682358 *  3.3627159    4.5844348    0.0000000    4.6403630  
  10 C       5.9778178    1.3941982 *  2.4157737 *  4.6403630    0.0000000  
  11 C       6.5563017    2.4282738 *  1.3929480 *  5.1472475    1.4059340 *
  12 C       1.4072576 *  5.7468211    6.9810693    2.4827994 *  7.0509132  
  13 C       1.4094956 *  5.0906499    6.5568351    2.5091532 *  6.4573067  
  14 C       2.4415892 *  6.9911437    8.2976071    3.7760193    8.3329798  
  15 C       2.4368934 *  6.4547826    7.9368806    3.7880228    7.8296156  
  16 C       2.7864491 *  7.2661084    8.6893863    4.2545008    8.6465322  
  17 C       4.5258135    3.8091501    2.4899297 *  3.4106310    4.2928561  
  18 H       4.4778300    1.0828406 *  3.8735635    3.4203865    2.1596897 *
  19 H       6.7276973    3.8719158    1.0808886 *  5.3735473    3.4013417  
  20 H       2.1831790 *  3.6068185    4.5314793    1.0941682 *  4.7251530  
  21 H       6.7417726    2.1472458 *  3.4003022    5.4667621    1.0840449 *
  22 H       7.6355855    3.4108596    2.1513110 *  6.2189760    2.1667941 *
  23 H       2.1620888 *  5.8255110    6.8881199    2.6884374 *  7.0348830  
  24 H       2.1506631 *  4.5981071    6.0845581    2.7107882 *  5.9195766  
  25 H       3.4258603    7.8765168    9.1189354    4.6478195    9.1907985  
  26 H       3.4222801    7.0286829    8.5388471    4.6683877    8.3798242  
  27 CL      4.6111985    9.0399769   10.4868000    6.0792355   10.4272008  
  28 H       6.0508583    5.6521116    3.6763988    5.1464952    5.9080363  

               11 C         12 C         13 C         14 C         15 C     

   1 O       4.1008176    6.6977639    6.4150606    7.8611625    7.6151871  
   2 O       4.8677373    4.4707571    4.3777899    5.5902118    5.5103447  
   3 N       4.2320110    3.6656325    2.8896586 *  4.8502156    4.2850903  
   4 C       2.8329685 *  4.8753092    4.2896699    6.1474201    5.6863165  
   5 C       2.4487178 *  5.6368427    5.2074602    6.9264098    6.5744481  
   6 C       6.5563017    1.4072576 *  1.4094956 *  2.4415892 *  2.4368934 *
   7 C       2.4282738 *  5.7468211    5.0906499    6.9911437    6.4547826  
   8 C       1.3929480 *  6.9810693    6.5568351    8.2976071    7.9368806  
   9 C       5.1472475    2.4827994 *  2.5091532 *  3.7760193    3.7880228  
  10 C       1.4059340 *  7.0509132    6.4573067    8.3329798    7.8296156  
  11 C       0.0000000    7.5979748    7.0971427    8.9224833    8.4927859  
  12 C       7.5979748    0.0000000    2.4301309 *  1.4011047 *  2.8068709 *
  13 C       7.0971427    2.4301309 *  0.0000000    2.8130862 *  1.3969170 *
  14 C       8.9224833    1.4011047 *  2.8130862 *  0.0000000    2.4438038 *
  15 C       8.4927859    2.8068709 *  1.3969170 *  2.4438038 *  0.0000000  
  16 C       9.2898791    2.4021548 *  2.4058260 *  1.3940059 *  1.3981978 *
  17 C       3.7812014    5.4067133    5.1323816    6.6121804    6.3831975  
  18 H       3.4146252    5.5758652    4.8269909    6.7260887    6.1117297  
  19 H       2.1528798 *  7.6728047    7.3215552    8.9773571    8.6722682  
  20 H       5.1183335    2.6517849 *  3.4604879    4.0505879    4.6187194  
  21 H       2.1640349 *  7.7943947    7.1731629    9.0449052    8.5080371  
  22 H       1.0828431 *  8.6576806    8.1747988    9.9920301    9.5695298  
  23 H       7.5102133    1.0847162 *  3.4142890    2.1523145 *  3.8915727  
  24 H       6.5646778    3.4045768    1.0826503 *  3.8955927    2.1610298 *
  25 H       9.7587570    2.1664705 *  3.8947982    1.0817779 *  3.4202270  
  26 H       9.0629061    3.8887146    2.1621793 *  3.4181223    1.0819479 *
  27 CL     11.0937244    4.0836828    4.0843217    2.7814040 *  2.7839894 *
  28 H       5.0675828    6.7599631    6.5818296    7.8337299    7.6746075  

               16 C         17 C         18 H         19 H         20 H     

   1 O       8.2430966    1.3935952 *  5.7855837    2.3055446 *  4.7493843  
   2 O       6.0108160    1.2411033 *  5.0790859    3.8908814    2.9490803 *
   3 N       5.0689696    2.9886001 *  2.5796579 *  4.6322715    2.0793570 *
   4 C       6.4583018    2.5334030 *  2.1462603 *  3.4165322    2.6847249 *
   5 C       7.3005122    1.4738378 *  3.4141150    2.1470672 *  3.3215492  
   6 C       2.7864491 *  4.5258135    4.4778300    6.7276973    2.1831790 *
   7 C       7.2661084    3.8091501    1.0828406 *  3.8719158    3.6068185  
   8 C       8.6893863    2.4899297 *  3.8735635    1.0808886 *  4.5314793  
   9 C       4.2545008    3.4106310    3.4203865    5.3735473    1.0941682 *
  10 C       8.6465322    4.2928561    2.1596897 *  3.4013417    4.7251530  
  11 C       9.2898791    3.7812014    3.4146252    2.1528798 *  5.1183335  
  12 C       2.4021548 *  5.4067133    5.5758652    7.6728047    2.6517849 *
  13 C       2.4058260 *  5.1323816    4.8269909    7.3215552    3.4604879  
  14 C       1.3940059 *  6.6121804    6.7260887    8.9773571    4.0505879  
  15 C       1.3981978 *  6.3831975    6.1117297    8.6722682    4.6187194  
  16 C       0.0000000    7.0076987    6.9283986    9.3945967    4.8260625  
  17 C       7.0076987    0.0000000    4.6747118    2.6613391 *  3.4237476  
  18 H       6.9283986    4.6747118    0.0000000    4.9540640    3.7844388  
  19 H       9.3945967    2.6613391 *  4.9540640    0.0000000    5.2518816  
  20 H       4.8260625    3.4237476    3.7844388    5.2518816    0.0000000  
  21 H       9.3344537    5.3768892    2.4844768 *  4.3025147    5.5540104  
  22 H      10.3724578    4.6407238    4.3135448    2.4847253 *  6.1401154  
  23 H       3.3857752    5.3835564    5.7384134    7.5345218    2.3939854 *
  24 H       3.3959386    4.8659148    4.3536142    6.8679423    3.7880694  
  25 H       2.1552670 *  7.3971704    7.6157467    9.7643220    4.7347792  
  26 H       2.1567284 *  7.0371444    6.6460942    9.2699289    5.5795020  
  27 CL      1.8247529 *  8.7322861    8.6438910   11.1719613    6.6215083  
  28 H       8.2205995    1.9391262 *  6.5710292    3.2328675    5.0794621  

               21 H         22 H         23 H         24 H         25 H     

   1 O       6.0278380    4.7106757    6.6311803    6.0986763    8.6060003  
   2 O       6.2301857    5.7912499    4.4913024    4.3089768    6.3395002  
   3 N       4.5494051    5.3142372    3.9702491    2.5738889 *  5.8003413  
   4 C       3.4209592    3.9158081    4.9689176    3.8737812    7.0401345  
   5 C       3.9036149    3.4273225    5.6184438    4.8078085    7.7670066  
   6 C       6.7417726    7.6355855    2.1620888 *  2.1506631 *  3.4258603  
   7 C       2.1472458 *  3.4108596    5.8255110    4.5981071    7.8765168  
   8 C       3.4003022    2.1513110 *  6.8881199    6.0845581    9.1189354  
   9 C       5.4667621    6.2189760    2.6884374 *  2.7107882 *  4.6478195  
  10 C       1.0840449 *  2.1667941 *  7.0348830    5.9195766    9.1907985  
  11 C       2.1640349 *  1.0828431 *  7.5102133    6.5646778    9.7587570  
  12 C       7.7943947    8.6576806    1.0847162 *  3.4045768    2.1664705 *
  13 C       7.1731629    8.1747988    3.4142890    1.0826503 *  3.8947982  
  14 C       9.0449052    9.9920301    2.1523145 *  3.8955927    1.0817779 *
  15 C       8.5080371    9.5695298    3.8915727    2.1610298 *  3.4202270  
  16 C       9.3344537   10.3724578    3.3857752    3.3959386    2.1552670 *
  17 C       5.3768892    4.6407238    5.3835564    4.8659148    7.3971704  
  18 H       2.4844768 *  4.3135448    5.7384134    4.3536142    7.6157467  
  19 H       4.3025147    2.4847253 *  7.5345218    6.8679423    9.7643220  
  20 H       5.5540104    6.1401154    2.3939854 *  3.7880694    4.7347792  
  21 H       0.0000000    2.5002429 *  7.7795985    6.6175262    9.8924568  
  22 H       2.5002429 *  0.0000000    8.5307212    7.6202115   10.8137540  
  23 H       7.7795985    8.5307212    0.0000000    4.3001690    2.4906688 *
  24 H       6.6175262    7.6202115    4.3001690    0.0000000    4.9773397  
  25 H       9.8924568   10.8137540    2.4906688 *  4.9773397    0.0000000  
  26 H       9.0195323   10.1230087    4.9733955    2.5063512 *  4.3049033  
  27 CL     11.0830737   12.1763880    4.9336720    4.9449269    2.9039930 *
  28 H       6.9705464    5.6700744    6.6910573    6.3531505    8.5218644  

               26 H         27 CL        28 H     

   1 O       8.2101827    9.9131046    0.9718186 *
   2 O       6.2176656    7.6866502    2.3279508 *
   3 N       4.9587516    6.8641393    4.8545281  
   4 C       6.3250256    8.2615892    4.4481725  
   5 C       7.2120350    9.0925076    3.2215014  
   6 C       3.4222801    4.6111985    6.0508583  
   7 C       7.0286829    9.0399769    5.6521116  
   8 C       8.5388471   10.4868000    3.6763988  
   9 C       4.6683877    6.0792355    5.1464952  
  10 C       8.3798242   10.4272008    5.9080363  
  11 C       9.0629061   11.0937244    5.0675828  
  12 C       3.8887146    4.0836828    6.7599631  
  13 C       2.1621793 *  4.0843217    6.5818296  
  14 C       3.4181223    2.7814040 *  7.8337299  
  15 C       1.0819479 *  2.7839894 *  7.6746075  
  16 C       2.1567284 *  1.8247529 *  8.2205995  
  17 C       7.0371444    8.7322861    1.9391262 *
  18 H       6.6460942    8.6438910    6.5710292  
  19 H       9.2699289   11.1719613    3.2328675  
  20 H       5.5795020    6.6215083    5.0794621  
  21 H       9.0195323   11.0830737    6.9705464  
  22 H      10.1230087   12.1763880    5.6700744  
  23 H       4.9733955    4.9336720    6.6910573  
  24 H       2.5063512 *  4.9449269    6.3531505  
  25 H       4.3049033    2.9039930 *  8.5218644  
  26 H       0.0000000    2.9024903 *  8.2653694  
  27 CL      2.9024903 *  0.0000000    9.8106721  
  28 H       8.2653694    9.8106721    0.0000000  

  * ... LESS THAN  3.000


     ATOMIC BASIS SET
     ----------------
 THE CONTRACTED PRIMITIVE FUNCTIONS HAVE BEEN UNNORMALIZED
 THE CONTRACTED BASIS FUNCTIONS ARE NOW NORMALIZED TO UNITY

  SHELL TYPE  PRIMITIVE        EXPONENT          CONTRACTION COEFFICIENT(S)

 O         

      1   S       1          5484.6716600    0.001831074430
      1   S       2           825.2349460    0.013950172200
      1   S       3           188.0469580    0.068445078098
      1   S       4            52.9645000    0.232714335992
      1   S       5            16.8975704    0.470192897984
      1   S       6             5.7996353    0.358520852987

      2   L       7            15.5396162   -0.110777549525    0.070874268231
      2   L       8             3.5999336   -0.148026262701    0.339752839147
      2   L       9             1.0137618    1.130767015354    0.727158577316

      3   L      10             0.2700058    1.000000000000    1.000000000000

      4   L      11             0.0845000    1.000000000000    1.000000000000

 O         

      5   S      12          5484.6716600    0.001831074430
      5   S      13           825.2349460    0.013950172200
      5   S      14           188.0469580    0.068445078098
      5   S      15            52.9645000    0.232714335992
      5   S      16            16.8975704    0.470192897984
      5   S      17             5.7996353    0.358520852987

      6   L      18            15.5396162   -0.110777549525    0.070874268231
      6   L      19             3.5999336   -0.148026262701    0.339752839147
      6   L      20             1.0137618    1.130767015354    0.727158577316

      7   L      21             0.2700058    1.000000000000    1.000000000000

      8   L      22             0.0845000    1.000000000000    1.000000000000

 N         

      9   S      23          4173.5114600    0.001834772160
      9   S      24           627.4579110    0.013994627002
      9   S      25           142.9020930    0.068586551812
      9   S      26            40.2343293    0.232240873040
      9   S      27            12.8202129    0.469069948082
      9   S      28             4.3904370    0.360455199063

     10   L      29            11.6263619   -0.114961181702    0.067579743878
     10   L      30             2.7162798   -0.169117478561    0.323907295893
     10   L      31             0.7722184    1.145851947027    0.740895139755

     11   L      32             0.2120315    1.000000000000    1.000000000000

     12   L      33             0.0639000    1.000000000000    1.000000000000

 C         

     13   S      34          3047.5248800    0.001834737132
     13   S      35           457.3695180    0.014037322813
     13   S      36           103.9486850    0.068842622264
     13   S      37            29.2101553    0.232184443216
     13   S      38             9.2866630    0.467941348435
     13   S      39             3.1639270    0.362311985337

     14   L      40             7.8682723   -0.119332419775    0.068999066591
     14   L      41             1.8812885   -0.160854151696    0.316423960957
     14   L      42             0.5442493    1.143456437840    0.744308290898

     15   L      43             0.1687145    1.000000000000    1.000000000000

     16   L      44             0.0438000    1.000000000000    1.000000000000

 C         

     17   S      45          3047.5248800    0.001834737132
     17   S      46           457.3695180    0.014037322813
     17   S      47           103.9486850    0.068842622264
     17   S      48            29.2101553    0.232184443216
     17   S      49             9.2866630    0.467941348435
     17   S      50             3.1639270    0.362311985337

     18   L      51             7.8682723   -0.119332419775    0.068999066591
     18   L      52             1.8812885   -0.160854151696    0.316423960957
     18   L      53             0.5442493    1.143456437840    0.744308290898

     19   L      54             0.1687145    1.000000000000    1.000000000000

     20   L      55             0.0438000    1.000000000000    1.000000000000

 C         

     21   S      56          3047.5248800    0.001834737132
     21   S      57           457.3695180    0.014037322813
     21   S      58           103.9486850    0.068842622264
     21   S      59            29.2101553    0.232184443216
     21   S      60             9.2866630    0.467941348435
     21   S      61             3.1639270    0.362311985337

     22   L      62             7.8682723   -0.119332419775    0.068999066591
     22   L      63             1.8812885   -0.160854151696    0.316423960957
     22   L      64             0.5442493    1.143456437840    0.744308290898

     23   L      65             0.1687145    1.000000000000    1.000000000000

     24   L      66             0.0438000    1.000000000000    1.000000000000

 C         

     25   S      67          3047.5248800    0.001834737132
     25   S      68           457.3695180    0.014037322813
     25   S      69           103.9486850    0.068842622264
     25   S      70            29.2101553    0.232184443216
     25   S      71             9.2866630    0.467941348435
     25   S      72             3.1639270    0.362311985337

     26   L      73             7.8682723   -0.119332419775    0.068999066591
     26   L      74             1.8812885   -0.160854151696    0.316423960957
     26   L      75             0.5442493    1.143456437840    0.744308290898

     27   L      76             0.1687145    1.000000000000    1.000000000000

     28   L      77             0.0438000    1.000000000000    1.000000000000

 C         

     29   S      78          3047.5248800    0.001834737132
     29   S      79           457.3695180    0.014037322813
     29   S      80           103.9486850    0.068842622264
     29   S      81            29.2101553    0.232184443216
     29   S      82             9.2866630    0.467941348435
     29   S      83             3.1639270    0.362311985337

     30   L      84             7.8682723   -0.119332419775    0.068999066591
     30   L      85             1.8812885   -0.160854151696    0.316423960957
     30   L      86             0.5442493    1.143456437840    0.744308290898

     31   L      87             0.1687145    1.000000000000    1.000000000000

     32   L      88             0.0438000    1.000000000000    1.000000000000

 C         

     33   S      89          3047.5248800    0.001834737132
     33   S      90           457.3695180    0.014037322813
     33   S      91           103.9486850    0.068842622264
     33   S      92            29.2101553    0.232184443216
     33   S      93             9.2866630    0.467941348435
     33   S      94             3.1639270    0.362311985337

     34   L      95             7.8682723   -0.119332419775    0.068999066591
     34   L      96             1.8812885   -0.160854151696    0.316423960957
     34   L      97             0.5442493    1.143456437840    0.744308290898

     35   L      98             0.1687145    1.000000000000    1.000000000000

     36   L      99             0.0438000    1.000000000000    1.000000000000

 C         

     37   S     100          3047.5248800    0.001834737132
     37   S     101           457.3695180    0.014037322813
     37   S     102           103.9486850    0.068842622264
     37   S     103            29.2101553    0.232184443216
     37   S     104             9.2866630    0.467941348435
     37   S     105             3.1639270    0.362311985337

     38   L     106             7.8682723   -0.119332419775    0.068999066591
     38   L     107             1.8812885   -0.160854151696    0.316423960957
     38   L     108             0.5442493    1.143456437840    0.744308290898

     39   L     109             0.1687145    1.000000000000    1.000000000000

     40   L     110             0.0438000    1.000000000000    1.000000000000

 C         

     41   S     111          3047.5248800    0.001834737132
     41   S     112           457.3695180    0.014037322813
     41   S     113           103.9486850    0.068842622264
     41   S     114            29.2101553    0.232184443216
     41   S     115             9.2866630    0.467941348435
     41   S     116             3.1639270    0.362311985337

     42   L     117             7.8682723   -0.119332419775    0.068999066591
     42   L     118             1.8812885   -0.160854151696    0.316423960957
     42   L     119             0.5442493    1.143456437840    0.744308290898

     43   L     120             0.1687145    1.000000000000    1.000000000000

     44   L     121             0.0438000    1.000000000000    1.000000000000

 C         

     45   S     122          3047.5248800    0.001834737132
     45   S     123           457.3695180    0.014037322813
     45   S     124           103.9486850    0.068842622264
     45   S     125            29.2101553    0.232184443216
     45   S     126             9.2866630    0.467941348435
     45   S     127             3.1639270    0.362311985337

     46   L     128             7.8682723   -0.119332419775    0.068999066591
     46   L     129             1.8812885   -0.160854151696    0.316423960957
     46   L     130             0.5442493    1.143456437840    0.744308290898

     47   L     131             0.1687145    1.000000000000    1.000000000000

     48   L     132             0.0438000    1.000000000000    1.000000000000

 C         

     49   S     133          3047.5248800    0.001834737132
     49   S     134           457.3695180    0.014037322813
     49   S     135           103.9486850    0.068842622264
     49   S     136            29.2101553    0.232184443216
     49   S     137             9.2866630    0.467941348435
     49   S     138             3.1639270    0.362311985337

     50   L     139             7.8682723   -0.119332419775    0.068999066591
     50   L     140             1.8812885   -0.160854151696    0.316423960957
     50   L     141             0.5442493    1.143456437840    0.744308290898

     51   L     142             0.1687145    1.000000000000    1.000000000000

     52   L     143             0.0438000    1.000000000000    1.000000000000

 C         

     53   S     144          3047.5248800    0.001834737132
     53   S     145           457.3695180    0.014037322813
     53   S     146           103.9486850    0.068842622264
     53   S     147            29.2101553    0.232184443216
     53   S     148             9.2866630    0.467941348435
     53   S     149             3.1639270    0.362311985337

     54   L     150             7.8682723   -0.119332419775    0.068999066591
     54   L     151             1.8812885   -0.160854151696    0.316423960957
     54   L     152             0.5442493    1.143456437840    0.744308290898

     55   L     153             0.1687145    1.000000000000    1.000000000000

     56   L     154             0.0438000    1.000000000000    1.000000000000

 C         

     57   S     155          3047.5248800    0.001834737132
     57   S     156           457.3695180    0.014037322813
     57   S     157           103.9486850    0.068842622264
     57   S     158            29.2101553    0.232184443216
     57   S     159             9.2866630    0.467941348435
     57   S     160             3.1639270    0.362311985337

     58   L     161             7.8682723   -0.119332419775    0.068999066591
     58   L     162             1.8812885   -0.160854151696    0.316423960957
     58   L     163             0.5442493    1.143456437840    0.744308290898

     59   L     164             0.1687145    1.000000000000    1.000000000000

     60   L     165             0.0438000    1.000000000000    1.000000000000

 C         

     61   S     166          3047.5248800    0.001834737132
     61   S     167           457.3695180    0.014037322813
     61   S     168           103.9486850    0.068842622264
     61   S     169            29.2101553    0.232184443216
     61   S     170             9.2866630    0.467941348435
     61   S     171             3.1639270    0.362311985337

     62   L     172             7.8682723   -0.119332419775    0.068999066591
     62   L     173             1.8812885   -0.160854151696    0.316423960957
     62   L     174             0.5442493    1.143456437840    0.744308290898

     63   L     175             0.1687145    1.000000000000    1.000000000000

     64   L     176             0.0438000    1.000000000000    1.000000000000

 C         

     65   S     177          3047.5248800    0.001834737132
     65   S     178           457.3695180    0.014037322813
     65   S     179           103.9486850    0.068842622264
     65   S     180            29.2101553    0.232184443216
     65   S     181             9.2866630    0.467941348435
     65   S     182             3.1639270    0.362311985337

     66   L     183             7.8682723   -0.119332419775    0.068999066591
     66   L     184             1.8812885   -0.160854151696    0.316423960957
     66   L     185             0.5442493    1.143456437840    0.744308290898

     67   L     186             0.1687145    1.000000000000    1.000000000000

     68   L     187             0.0438000    1.000000000000    1.000000000000

 H         

     69   S     188            18.7311370    0.033494604338
     69   S     189             2.8253944    0.234726953484
     69   S     190             0.6401217    0.813757326146

     70   S     191             0.1612778    1.000000000000

     71   P     192             1.1000000    1.000000000000

 H         

     72   S     193            18.7311370    0.033494604338
     72   S     194             2.8253944    0.234726953484
     72   S     195             0.6401217    0.813757326146

     73   S     196             0.1612778    1.000000000000

     74   P     197             1.1000000    1.000000000000

 H         

     75   S     198            18.7311370    0.033494604338
     75   S     199             2.8253944    0.234726953484
     75   S     200             0.6401217    0.813757326146

     76   S     201             0.1612778    1.000000000000

     77   P     202             1.1000000    1.000000000000

 H         

     78   S     203            18.7311370    0.033494604338
     78   S     204             2.8253944    0.234726953484
     78   S     205             0.6401217    0.813757326146

     79   S     206             0.1612778    1.000000000000

     80   P     207             1.1000000    1.000000000000

 H         

     81   S     208            18.7311370    0.033494604338
     81   S     209             2.8253944    0.234726953484
     81   S     210             0.6401217    0.813757326146

     82   S     211             0.1612778    1.000000000000

     83   P     212             1.1000000    1.000000000000

 H         

     84   S     213            18.7311370    0.033494604338
     84   S     214             2.8253944    0.234726953484
     84   S     215             0.6401217    0.813757326146

     85   S     216             0.1612778    1.000000000000

     86   P     217             1.1000000    1.000000000000

 H         

     87   S     218            18.7311370    0.033494604338
     87   S     219             2.8253944    0.234726953484
     87   S     220             0.6401217    0.813757326146

     88   S     221             0.1612778    1.000000000000

     89   P     222             1.1000000    1.000000000000

 H         

     90   S     223            18.7311370    0.033494604338
     90   S     224             2.8253944    0.234726953484
     90   S     225             0.6401217    0.813757326146

     91   S     226             0.1612778    1.000000000000

     92   P     227             1.1000000    1.000000000000

 H         

     93   S     228            18.7311370    0.033494604338
     93   S     229             2.8253944    0.234726953484
     93   S     230             0.6401217    0.813757326146

     94   S     231             0.1612778    1.000000000000

     95   P     232             1.1000000    1.000000000000

 CL        

     96   S     233         25180.1000000    0.001832959848
     96   S     234          3780.3500000    0.014034198835
     96   S     235           860.4740000    0.069097394263
     96   S     236           242.1450000    0.237451980285
     96   S     237            77.3349000    0.483033959896
     96   S     238            26.2470000    0.339855971783

     97   L     239           491.7650000   -0.002297391417    0.003989400879
     97   L     240           116.9840000   -0.030713718938    0.030317706682
     97   L     241            37.4153000   -0.112528069386    0.129880028625
     97   L     242            13.7834000    0.045016327757    0.327951072278
     97   L     243             5.4521500    0.589353363399    0.453527099954
     97   L     244             2.2258800    0.465206286849    0.252154055573

     98   L     245             3.1864900   -0.251831288046   -0.014299314719
     98   L     246             1.1442700    0.061589315012    0.323572333073
     98   L     247             0.4203770    1.060185422549    0.743507765337

     99   L     248             0.1426570    1.000000000000    1.000000000000

    100   L     249             0.0483000    1.000000000000    1.000000000000

 H         

    101   S     250            18.7311370    0.033494604338
    101   S     251             2.8253944    0.234726953484
    101   S     252             0.6401217    0.813757326146

    102   S     253             0.1612778    1.000000000000

    103   P     254             1.1000000    1.000000000000

 TOTAL NUMBER OF BASIS SET SHELLS             =  103
 NUMBER OF CARTESIAN GAUSSIAN BASIS FUNCTIONS =  288
 NOTE: THIS RUN WILL RESTRICT THE MO VARIATION SPACE TO SPHERICAL HARMONICS.
 THE NUMBER OF ORBITALS KEPT IN THE VARIATIONAL SPACE WILL BE PRINTED LATER.
 NUMBER OF ELECTRONS                          =  134
 CHARGE OF MOLECULE                           =    0
 SPIN MULTIPLICITY                            =    1
 NUMBER OF OCCUPIED ORBITALS (ALPHA)          =   67
 NUMBER OF OCCUPIED ORBITALS (BETA )          =   67
 TOTAL NUMBER OF ATOMS                        =   28
 THE NUCLEAR REPULSION ENERGY IS     1242.5314629843

 SELECTED MURRAY-HANDY-LAMING RADIAL GRID

 LEGACY BECKE'S FUZZY CELL METHOD

 SELECTED ORIGINAL BECKE'S PARTITION FUNCTION

     LEBEDEV GRID-BASED DFT OPTIONS
     ------------------------------
     DFTTYP=B3LYP   
     NRAD  =      96     NLEB  =     302
     NRAD0 =      24     NLEB0 =     110
     SWOFF =    5.00E-03 (PURE SCF -> DFT)
     SWITCH=    3.00E-04 (COARSE -> TIGHT GRID)
     THRESH=    0.00E+00 GTHRE=    1.00E+00

 GRIMME'S EMPIRICAL DISPERSION CORRECTION= F

     $CONTRL OPTIONS
     ---------------
 SCFTYP=RHF          RUNTYP=RAMAN        EXETYP=RUN     
 MPLEVL=       0     CITYP =NONE         CCTYP =NONE         VBTYP =NONE    
 DFTTYP=B3LYP        TDDFT =NONE    
 MULT  =       1     ICHARG=       0     NZVAR =       0     COORD =UNIQUE  
 PP    =NONE         RELWFN=NONE         LOCAL =NONE         NUMGRD=       F
 ISPHER=       1     NOSYM =       0     MAXIT =     200     UNITS =ANGS    
 PLTORB=       F     MOLPLT=       F     AIMPAC=       F     FRIEND=        
 NPRINT=       7     IREST =       0     GEOM  =INPUT   
 NORMF =       0     NORMP =       0     ITOL  =      20     ICUT  =       9
 INTTYP=BEST         GRDTYP=BEST         QMTTOL= 1.0E-06

     $SYSTEM OPTIONS
     ---------------
  REPLICATED MEMORY=   100000000 WORDS (ON EVERY NODE).
 DISTRIBUTED MEMDDI=           0 MILLION WORDS IN AGGREGATE,
 MEMDDI DISTRIBUTED OVER  16 PROCESSORS IS           0 WORDS/PROCESSOR.
 TOTAL MEMORY REQUESTED ON EACH PROCESSOR=   100000000 WORDS.
 TIMLIM=      525600.00 MINUTES, OR     365.0 DAYS.
 PARALL= T  BALTYP=  DLB     KDIAG=    0  COREFL= F
 MXSEQ2=     300 MXSEQ3=     150  mem10=         0

          ----------------
          PROPERTIES INPUT
          ----------------

     MOMENTS            FIELD           POTENTIAL          DENSITY
 IEMOM =       1   IEFLD =       0   IEPOT =       0   IEDEN =       0
 WHERE =COMASS     WHERE =NUCLEI     WHERE =NUCLEI     WHERE =NUCLEI  
 OUTPUT=BOTH       OUTPUT=BOTH       OUTPUT=BOTH       OUTPUT=BOTH    
 IEMINT=       0   IEFINT=       0                     IEDINT=       0
                                                       MORB  =       0
          EXTRAPOLATION IN EFFECT
          DAMPING IN EFFECT
          DIIS IN EFFECT
 ORBITAL PRINTING OPTION: NPREO=     1   288     2     1

     -------------------------------
     INTEGRAL TRANSFORMATION OPTIONS
     -------------------------------
     NWORD  =            0
     CUTOFF = 1.0E-09     MPTRAN =       0
     DIRTRF =       T     AOINTS =DUP     

          ----------------------
          INTEGRAL INPUT OPTIONS
          ----------------------
 NOPK  =       1 NORDER=       0 SCHWRZ=       T

     ------------------------------------------
     THE POINT GROUP IS C1 , NAXIS= 0, ORDER= 1
     ------------------------------------------

 -- VARIATIONAL SPACE WILL BE RESTRICTED TO PURE SPHERICAL HARMONICS ONLY --
 AFTER EXCLUDING CONTAMINANT COMBINATIONS FROM THE CARTESIAN GAUSSIAN BASIS
 SET, THE NUMBER OF SPHERICAL HARMONICS KEPT IN THE VARIATION SPACE IS  288

     DIMENSIONS OF THE SYMMETRY SUBSPACES ARE
 A   =  288

 ..... DONE SETTING UP THE RUN .....
 CPU     0: STEP CPU TIME=     0.09 TOTAL CPU TIME=          0.1 (      0.0 MIN)
 TOTAL WALL CLOCK TIME=          0.1 SECONDS, CPU UTILIZATION IS    64.29%

 $HESS GROUP READ FROM CARDS
 ENERGY IS    -1204.2543296726 E(NUC) IS     1242.5314629812                     

          -------------------------------
          CARTESIAN FORCE CONSTANT MATRIX
          -------------------------------

                                   1                          2
                               O                          O         
                          X        Y        Z        X        Y        Z
  1   O            X 0.351620-0.092232-0.053927-0.089373-0.046410 0.012649
                   Y-0.092232 0.609082 0.071378-0.026241 0.020759 0.004076
                   Z-0.053927 0.071378 0.048737 0.012826 0.004889 0.024412
  2   O            X-0.089373-0.026241 0.012826 0.663773-0.133421-0.098064
                   Y-0.046410 0.020759 0.004889-0.133421 0.135877 0.029686
                   Z 0.012649 0.004076 0.024412-0.098064 0.029686 0.044108
  3   N            X-0.001051-0.004059 0.000067 0.008424-0.005976-0.001311
                   Y-0.001156 0.000341 0.000132-0.005302-0.004183-0.001178
                   Z 0.000069-0.000013 0.000033 0.002496-0.000566 0.002674
  4   C            X 0.000061 0.010016 0.000484-0.014711 0.002022 0.000956
                   Y 0.004332 0.000062-0.000990-0.003463 0.003188 0.001685
                   Z 0.000680 0.001076 0.001942-0.002969 0.001366-0.001020
  5   C            X 0.009403-0.027450-0.002547-0.028436 0.045028 0.009814
                   Y-0.000499-0.047280-0.005087 0.028656-0.007882-0.004736
                   Z 0.000314-0.001185 0.009820 0.008896-0.007845 0.017754
  6   C            X-0.000044-0.000453-0.000081 0.000671 0.000085 0.000337
                   Y-0.000028 0.000031 0.000097-0.000198-0.000168-0.000014
                   Z-0.000220-0.000120 0.000011-0.000291-0.000009 0.000474
  7   C            X 0.000970-0.000708-0.000056 0.001581-0.000141 0.000191
                   Y 0.000683-0.001476 0.000071-0.001023 0.000797 0.000017
                   Z 0.000383-0.000535-0.000790-0.000064 0.000457-0.000725
  8   C            X-0.006529-0.001403-0.000142 0.008250-0.004422-0.001431
                   Y 0.002473-0.004720-0.000561-0.000563-0.004874-0.001899
                   Z-0.000154 0.000120 0.000625-0.000430-0.001483 0.002791
  9   C            X 0.001824 0.002910-0.000071-0.001154 0.002027-0.000169
                   Y 0.000444-0.000334 0.000379 0.000028-0.005502-0.001326
                   Z-0.000195-0.000723 0.000110 0.000228-0.001754-0.002894
 10   C            X 0.000472 0.000203 0.000076-0.003025 0.001614 0.000077
                   Y 0.000465-0.000480 0.000021-0.001345 0.000584 0.000064
                   Z 0.000099-0.000071-0.000086-0.000779 0.000186 0.000260
 11   C            X 0.001412-0.000963 0.000108 0.000571 0.001861 0.000433
                   Y-0.001299-0.001695-0.000069 0.005443-0.002351 0.000020
                   Z-0.000157-0.000631-0.000530 0.000702 0.000220-0.001348
 12   C            X 0.000147 0.000094-0.000015 0.000312-0.000103-0.000175
                   Y-0.000129-0.000074 0.000006-0.000274 0.000129 0.000122
                   Z-0.000272-0.000421-0.000013-0.000031-0.000242-0.000125
 13   C            X-0.000013-0.000082-0.000005 0.000149-0.000230 0.000120
                   Y-0.000081-0.000044-0.000030-0.000076 0.000251 0.000051
                   Z 0.000268 0.000300-0.000034 0.000318 0.000018-0.000194
 14   C            X-0.000153-0.000286 0.000023 0.000018-0.000220-0.000020
                   Y-0.000015 0.000038 0.000001-0.000046 0.000080 0.000045
                   Z-0.000149-0.000235 0.000040-0.000062-0.000160 0.000098
 15   C            X-0.000195-0.000310 0.000000-0.000004-0.000154 0.000062
                   Y 0.000022 0.000078-0.000008-0.000028 0.000040-0.000090
                   Z 0.000082 0.000158 0.000010-0.000059 0.000079 0.000138
 16   C            X 0.000570 0.000685-0.000035 0.000531 0.000267-0.000042
                   Y-0.000031-0.000044-0.000003 0.000008-0.000027 0.000011
                   Z 0.000105 0.000141-0.000024 0.000086 0.000093-0.000032
 17   C            X-0.139102-0.062416 0.005104-0.545776 0.132536 0.076248
                   Y-0.021949-0.174119-0.007806 0.132766-0.142025-0.026916
                   Z 0.007847-0.003708-0.058468 0.077757-0.024698-0.083163
 18   H            X-0.000037 0.000194 0.000028 0.000035-0.000085-0.000026
                   Y 0.000112-0.000683-0.000058 0.000390-0.000067-0.000036
                   Z 0.000031-0.000115-0.000125 0.000191-0.000008-0.000070
 19   H            X 0.000863 0.000772-0.000100 0.001252 0.000380-0.000245
                   Y 0.002677-0.004479-0.000071-0.000679 0.000098 0.000128
                   Z 0.000075 0.000043 0.000168 0.000427-0.000189 0.000491
 20   H            X-0.000074 0.000056 0.000046-0.000361-0.000553 0.000407
                   Y 0.000418 0.000405-0.000105-0.000122-0.000208 0.000194
                   Z-0.000463 0.000080-0.000030-0.001666-0.000252 0.001071
 21   H            X 0.000156 0.000044-0.000019 0.000055 0.000066-0.000035
                   Y 0.000100-0.000181-0.000035 0.000103-0.000076-0.000052
                   Z 0.000002 0.000027 0.000180 0.000132-0.000098 0.000157
 22   H            X 0.000161 0.000295 0.000030-0.000187 0.000369 0.000101
                   Y-0.000203-0.000192-0.000024 0.000348-0.000675-0.000107
                   Z-0.000030 0.000030-0.000000 0.000107 0.000043-0.000395
 23   H            X 0.000075 0.000097 0.000000 0.000041 0.000075-0.000060
                   Y 0.000075 0.000005-0.000009 0.000211-0.000116-0.000134
                   Z-0.000073-0.000050 0.000009-0.000116 0.000007 0.000116
 24   H            X 0.000075 0.000150-0.000004-0.000078 0.000141 0.000002
                   Y 0.000071-0.000009-0.000007 0.000231-0.000145 0.000122
                   Z 0.000106 0.000167-0.000014-0.000019 0.000120 0.000069
 25   H            X-0.000033-0.000065-0.000005 0.000015-0.000070-0.000022
                   Y 0.000009 0.000002 0.000000 0.000048-0.000018-0.000026
                   Z 0.000012 0.000018-0.000003 0.000002 0.000009 0.000005
 26   H            X-0.000032-0.000051 0.000016-0.000001-0.000050 0.000033
                   Y 0.000006-0.000009 0.000007 0.000050-0.000045 0.000023
                   Z-0.000024-0.000040 0.000004-0.000001-0.000039 0.000012
 27   CL           X-0.000496-0.000689 0.000033-0.000273-0.000423 0.000002
                   Y 0.000033 0.000084-0.000004-0.000011 0.000072-0.000005
                   Z-0.000097-0.000133 0.000014-0.000057-0.000084 0.000033
 28   H            X-0.130675 0.201895 0.038169-0.002283 0.005783 0.000166
                   Y 0.152107-0.395072-0.062116 0.004492 0.006495 0.000277
                   Z 0.033039-0.069636-0.025996 0.000434 0.000257-0.004699

                                   3                          4
                               N                          C         
                          X        Y        Z        X        Y        Z
  3   N            X 0.696741-0.075996-0.268829-0.243593 0.005281-0.030397
                   Y-0.075996 0.115991 0.057601 0.012682-0.083361-0.003330
                   Z-0.268829 0.057601 0.399141 0.018389-0.007257-0.053868
  4   C            X-0.243593 0.012682 0.018389 0.640888-0.009777 0.010525
                   Y 0.005281-0.083361-0.007257-0.009777 0.620277 0.081414
                   Z-0.030397-0.003330-0.053868 0.010525 0.081414 0.190915
  5   C            X-0.033254-0.030203-0.006612-0.173733-0.046894-0.014871
                   Y-0.018157 0.009701-0.008625-0.077691-0.218243-0.026874
                   Z-0.011837 0.002146 0.002520-0.014047-0.028608-0.072919
  6   C            X-0.059063 0.007758 0.021352 0.008426 0.000067-0.000264
                   Y 0.006755-0.007640-0.001871 0.002340 0.016063-0.000864
                   Z 0.031570-0.001133 0.011826 0.004122-0.001716-0.001145
  7   C            X-0.048571 0.047048 0.002439-0.134011 0.030786 0.001338
                   Y 0.027370-0.003622 0.007771 0.077247-0.269995-0.035900
                   Z-0.002561 0.000080 0.007366 0.008836-0.033453-0.076289
  8   C            X-0.001773 0.002661 0.000133-0.034810-0.060103-0.012313
                   Y 0.003317-0.006530 0.001160-0.029682 0.042056 0.002642
                   Z 0.000592-0.002506 0.007044-0.006731 0.001653 0.003179
  9   C            X-0.313333 0.037616 0.208488-0.064638 0.012823 0.033343
                   Y 0.044071-0.049803-0.042360 0.008444-0.003528-0.002203
                   Z 0.275148-0.044719-0.341421-0.015406-0.001161-0.012300
 10   C            X 0.013145-0.004666 0.004196-0.024925 0.074739 0.008368
                   Y 0.002279-0.007292-0.002935 0.036735 0.020062 0.007059
                   Z-0.000414-0.001128 0.005841 0.006256 0.006677 0.004936
 11   C            X-0.006644 0.000887-0.002557 0.005266-0.005889 0.001227
                   Y-0.007331 0.004763-0.001758-0.000945-0.063298-0.008841
                   Z-0.001412 0.001071-0.001674 0.000375-0.009689-0.005845
 12   C            X 0.001175-0.000945-0.004794-0.001677 0.000556 0.000426
                   Y-0.000215 0.002187 0.000304 0.000275 0.000353 0.000127
                   Z-0.009522 0.001267 0.003042 0.001528-0.000283 0.000563
 13   C            X 0.002126-0.000106-0.005144-0.000091-0.000122-0.000429
                   Y 0.000213 0.000963 0.000318-0.000199-0.000657 0.000153
                   Z 0.006113-0.001484-0.007903-0.000953 0.000264-0.000170
 14   C            X-0.004608 0.000710 0.000234 0.001304-0.000333 0.000150
                   Y 0.000340 0.000276 0.000131-0.000219-0.001170 0.000031
                   Z-0.001100 0.000526 0.001058 0.001349-0.000218 0.000170
 15   C            X-0.002377 0.000351 0.002842 0.001488-0.000155 0.000287
                   Y 0.000162-0.000346-0.000348-0.000132-0.000183 0.000004
                   Z 0.002429-0.000248 0.000615-0.001115 0.000176 0.000064
 16   C            X 0.003481-0.000539-0.001772-0.001967 0.000328-0.000375
                   Y-0.000306-0.000398 0.000215 0.000243 0.000157-0.000058
                   Z 0.001993-0.000339 0.000881-0.000431 0.000151 0.000002
 17   C            X-0.009547 0.003702-0.003288 0.028265-0.015263 0.000565
                   Y 0.016800-0.001976 0.003112-0.010544-0.034514-0.007812
                   Z 0.003564-0.000700-0.003487-0.003270-0.006661 0.000231
 18   H            X 0.000793 0.000101-0.000022 0.009300 0.013176 0.003045
                   Y-0.001678 0.002569 0.001015-0.018950-0.019639-0.006135
                   Z 0.000491-0.000191-0.003059-0.003354-0.003152 0.003535
 19   H            X-0.000648-0.001079 0.000244-0.004464 0.002566-0.000273
                   Y 0.000352 0.000274-0.000012 0.002172 0.001186-0.000491
                   Z 0.000086-0.000364 0.000445-0.000298-0.000765 0.005529
 20   H            X 0.002537 0.004507 0.031977 0.005512-0.001145 0.002651
                   Y 0.005258 0.027499-0.006277-0.003754-0.008780-0.000180
                   Z 0.004679-0.005863-0.031908-0.005647 0.001981 0.003678
 21   H            X-0.000293 0.001295 0.000802-0.004916-0.000241-0.001541
                   Y 0.000489-0.000172-0.000067-0.000587 0.002077-0.001073
                   Z 0.000081 0.000211-0.000147-0.001273-0.000738 0.007764
 22   H            X-0.000096 0.000131 0.000208 0.000709-0.000297 0.000006
                   Y-0.000097 0.000339 0.000162-0.000142-0.001300-0.000108
                   Z 0.000152 0.000048-0.000870-0.000094 0.000149-0.000461
 23   H            X 0.000576-0.000144-0.000907-0.000326 0.000108-0.000048
                   Y 0.000035 0.000166-0.000028 0.000128 0.000356 0.000009
                   Z 0.000472-0.000052 0.000335 0.000017-0.000003 0.000070
 24   H            X 0.000137-0.000165-0.000942-0.000776 0.000182 0.000468
                   Y 0.000035-0.000240 0.000189-0.000032-0.000007-0.000068
                   Z 0.001273-0.000017 0.001361-0.000978 0.000195 0.000553
 25   H            X-0.000853 0.000070 0.000077 0.000199-0.000024 0.000039
                   Y 0.000041-0.000105 0.000032 0.000004-0.000063 0.000001
                   Z-0.000077 0.000005 0.000007-0.000082 0.000031-0.000028
 26   H            X-0.000201 0.000064 0.000309 0.000154-0.000026 0.000031
                   Y 0.000058 0.000127-0.000032-0.000022 0.000006 0.000003
                   Z-0.000188 0.000031 0.000081 0.000143-0.000017 0.000017
 27   CL           X-0.003371 0.000514 0.000582 0.002205-0.000341 0.000351
                   Y 0.000348 0.000180-0.000079-0.000218-0.000006 0.000009
                   Z-0.000680 0.000108 0.000205 0.000389-0.000054 0.000086
 28   H            X 0.000140 0.000203 0.000053 0.000834-0.000846-0.000016
                   Y 0.000610 0.000295 0.000193 0.000625-0.001126 0.000034
                   Z-0.000386 0.000026-0.000139 0.000318 0.000380 0.000811

                                   5                          6
                               C                          C         
                          X        Y        Z        X        Y        Z
  5   C            X 0.668606 0.002184 0.024866-0.001556 0.002617 0.000292
                   Y 0.002184 0.627765 0.075403-0.000930-0.001309-0.000242
                   Z 0.024866 0.075403 0.163452-0.001052-0.000484-0.000194
  6   C            X-0.001556-0.000930-0.001052 0.664366-0.049259-0.006890
                   Y 0.002617-0.001309-0.000484-0.049259 0.162716 0.023491
                   Z 0.000292-0.000242-0.000194-0.006890 0.023491 0.693165
  7   C            X 0.049035 0.002030 0.001641-0.001972-0.002783 0.000703
                   Y-0.025578-0.044924-0.011183 0.000859-0.000234 0.000186
                   Z-0.000616-0.008657 0.008032 0.000495 0.000437 0.000162
  8   C            X-0.298224 0.037489-0.008840-0.000096 0.000112 0.000190
                   Y-0.004489-0.121230-0.007512-0.000155 0.000786 0.000122
                   Z-0.014310-0.003834-0.069085 0.000098 0.000295 0.000112
  9   C            X 0.004473 0.007403 0.003233-0.216690 0.012369-0.038296
                   Y-0.002527-0.001256-0.003305 0.009763-0.069352-0.000275
                   Z-0.004812 0.001241 0.000989-0.056542 0.003153-0.121868
 10   C            X-0.048027-0.013287-0.003453 0.000327 0.000246-0.000020
                   Y-0.021992-0.007350-0.000581 0.000319 0.000628-0.000277
                   Z-0.007336-0.001321-0.006280 0.000224 0.000405 0.000007
 11   C            X-0.017707 0.034258 0.003633-0.000230-0.000107-0.000004
                   Y 0.069906 0.005342 0.002006-0.000220-0.000196 0.000068
                   Z 0.010712 0.001629 0.009833-0.000103 0.000078-0.000007
 12   C            X 0.000286 0.000163 0.000096-0.199154 0.015169 0.068745
                   Y-0.000011 0.000065 0.000036 0.017256-0.071163-0.014320
                   Z-0.000404-0.000240-0.000163 0.115296-0.018427-0.241727
 13   C            X 0.000150 0.000183 0.000224-0.136672 0.005129-0.027941
                   Y-0.000173 0.000111 0.000148 0.003726-0.070301-0.005223
                   Z 0.000367-0.000048 0.000174-0.070519-0.001947-0.292634
 14   C            X-0.000283-0.000177 0.000004-0.046510 0.007475 0.049679
                   Y-0.000134 0.000126-0.000057 0.006214 0.007804-0.003568
                   Z-0.000164-0.000115-0.000110 0.014273 0.000212 0.045290
 15   C            X-0.000167-0.000265-0.000102-0.014888-0.000748-0.073405
                   Y 0.000023-0.000019-0.000073 0.000955 0.007641 0.007380
                   Z 0.000133 0.000229 0.000090-0.037437 0.003899 0.011517
 16   C            X 0.000292 0.000234 0.000046 0.001484-0.000382 0.013171
                   Y 0.000001-0.000105 0.000128-0.000428-0.007649-0.003442
                   Z 0.000120-0.000004-0.000015 0.011927-0.003433-0.064434
 17   C            X-0.109324 0.023330 0.001882-0.000620 0.000059 0.000648
                   Y 0.037034-0.194799-0.016733 0.001362-0.000060 0.000062
                   Z 0.003986-0.014993-0.084636 0.000161-0.000175-0.000242
 18   H            X-0.000805 0.002130-0.000138 0.000026-0.000117-0.000019
                   Y 0.003410-0.003035-0.001478-0.000073 0.000082-0.000061
                   Z 0.000519-0.000940 0.005575-0.000022-0.000201-0.000104
 19   H            X-0.016444-0.024925-0.005137-0.000118 0.000207 0.000055
                   Y 0.005061 0.006268 0.000627-0.000015-0.000056-0.000019
                   Z-0.000349-0.001587 0.004354 0.000045-0.000010 0.000012
 20   H            X 0.000191-0.000274-0.000761-0.006761-0.000850-0.028674
                   Y-0.001013 0.001365 0.000377 0.001814 0.009211 0.002137
                   Z 0.000936 0.001375-0.000116 0.001305-0.001547-0.006125
 21   H            X-0.000821-0.000418-0.000025-0.000113-0.000118 0.000071
                   Y-0.000549 0.000663 0.000189 0.000070 0.000000-0.000003
                   Z-0.000302-0.000138-0.000774-0.000037-0.000047 0.000000
 22   H            X 0.001435 0.001931-0.000136-0.000042 0.000015-0.000002
                   Y 0.000989-0.004369-0.001710-0.000010-0.000016 0.000001
                   Z-0.000158-0.001949 0.007048-0.000006-0.000051-0.000004
 23   H            X 0.000034 0.000028 0.000029 0.009884 0.000343 0.019890
                   Y 0.000104-0.000088-0.000020-0.001055 0.004165-0.002847
                   Z 0.000009 0.000021 0.000021-0.010078-0.000081-0.018692
 24   H            X 0.000057 0.000164-0.000007 0.011418-0.000923-0.008949
                   Y 0.000023-0.000022 0.000004-0.000125 0.004496-0.000250
                   Z 0.000115 0.000246-0.000038 0.020751-0.002780-0.019193
 25   H            X-0.000030-0.000027 0.000002-0.003976 0.000982-0.002918
                   Y 0.000022-0.000022-0.000010 0.000953 0.007066 0.000079
                   Z-0.000001 0.000007 0.000028-0.002178-0.000059 0.000767
 26   H            X-0.000017-0.000017-0.000013-0.004998 0.001282 0.000166
                   Y 0.000025-0.000040 0.000001 0.001237 0.007673-0.000311
                   Z-0.000016-0.000017-0.000002-0.000164-0.000177 0.001733
 27   CL           X-0.000253-0.000273-0.000117-0.003115 0.000396-0.001692
                   Y 0.000021 0.000057-0.000020 0.000222-0.000257 0.000235
                   Z-0.000048-0.000034-0.000041-0.000908 0.000140 0.001303
 28   H            X-0.004883-0.003265 0.000785 0.000016 0.000019 0.000018
                   Y-0.005433 0.000535-0.000241 0.000062 0.000042 0.000056
                   Z 0.000678-0.000704 0.004683 0.000019-0.000035-0.000009

                                   7                          8
                               C                          C         
                          X        Y        Z        X        Y        Z
  7   C            X 0.731478 0.037049 0.061998-0.039204 0.029533 0.002636
                   Y 0.037049 0.669498 0.100543 0.028143-0.023812-0.001287
                   Z 0.061998 0.100543 0.155518 0.002913-0.001265-0.004090
  8   C            X-0.039204 0.028143 0.002913 0.667261 0.025522 0.035359
                   Y 0.029533-0.023812-0.001265 0.025522 0.745921 0.093834
                   Z 0.002636-0.001287-0.004090 0.035359 0.093834 0.167052
  9   C            X 0.005464-0.009074-0.001213 0.000672-0.000937-0.001967
                   Y 0.000577 0.000714 0.001681-0.000324-0.000695 0.000111
                   Z-0.003648-0.000135 0.002593-0.000817-0.001250 0.000022
 10   C            X-0.350431 0.001251-0.026109 0.058607-0.034146-0.003040
                   Y 0.054776-0.132192-0.008370 0.002993-0.058214-0.011145
                   Z-0.013355-0.011224-0.067083 0.004498-0.013461 0.006546
 11   C            X-0.040318-0.024955-0.007617-0.165922 0.110152 0.011339
                   Y-0.059785 0.042130 0.002843 0.055722-0.313009-0.033237
                   Z-0.013599 0.003791 0.008767 0.002038-0.031105-0.073002
 12   C            X 0.000029-0.000203-0.000224-0.000139-0.000001 0.000052
                   Y-0.000121-0.000007-0.000168 0.000064-0.000017 0.000082
                   Z-0.000746 0.000272 0.000048-0.000146-0.000061-0.000020
 13   C            X 0.000010-0.000236-0.000013-0.000047-0.000004 0.000031
                   Y 0.000091-0.000044-0.000105 0.000065-0.000021 0.000005
                   Z 0.000430 0.000001-0.000095 0.000017 0.000128 0.000043
 14   C            X-0.000439 0.000149 0.000068-0.000016 0.000006-0.000055
                   Y 0.000273 0.000056 0.000036 0.000003-0.000051-0.000022
                   Z-0.000332 0.000093-0.000009-0.000036-0.000018-0.000012
 15   C            X-0.000435 0.000228 0.000041-0.000058 0.000036-0.000035
                   Y 0.000054-0.000003 0.000040 0.000015 0.000014-0.000010
                   Z 0.000282-0.000216-0.000018 0.000087-0.000021-0.000036
 16   C            X 0.000677-0.000347 0.000002 0.000084-0.000014 0.000016
                   Y-0.000094 0.000063-0.000016-0.000050 0.000012-0.000053
                   Z 0.000194-0.000020-0.000008 0.000032 0.000027 0.000013
 17   C            X-0.002778-0.004159-0.001586-0.016540 0.039737 0.006585
                   Y-0.002534-0.002037-0.001548 0.026685-0.009378-0.002349
                   Z-0.001041-0.002142 0.006555 0.003529 0.000357 0.000500
 18   H            X-0.161491-0.135895-0.037394-0.000344 0.000812 0.000139
                   Y-0.133675-0.230946-0.049234 0.001105-0.000109 0.000239
                   Z-0.038754-0.049022-0.049670-0.000198 0.000611-0.000893
 19   H            X-0.000234 0.000562 0.000114-0.159856-0.136962-0.027730
                   Y 0.000985 0.000002 0.000214-0.140889-0.243622-0.040204
                   Z 0.000160 0.000241-0.001062-0.028258-0.039274-0.049670
 20   H            X-0.000180 0.000758-0.000472-0.000274 0.000129-0.000111
                   Y 0.001241-0.000305-0.000091-0.000390-0.000545-0.000075
                   Z 0.001352-0.001272-0.000048 0.000561-0.000267-0.000375
 21   H            X-0.008558 0.030405 0.004287-0.001876-0.003482-0.001128
                   Y-0.001847 0.000109-0.000928-0.003916-0.001989-0.001663
                   Z-0.001153 0.001398 0.005076-0.001137-0.001668 0.006476
 22   H            X 0.000216-0.003173-0.000919-0.008190-0.001748-0.000959
                   Y-0.002390-0.003675-0.001821 0.031381-0.000703 0.001420
                   Z-0.000884-0.001839 0.006154 0.004104-0.000642 0.003155
 23   H            X 0.000087-0.000041 0.000005 0.000019-0.000008-0.000012
                   Y-0.000080 0.000007 0.000026-0.000057 0.000011 0.000011
                   Z-0.000007-0.000011 0.000003 0.000015 0.000013-0.000009
 24   H            X 0.000195-0.000157-0.000062 0.000060-0.000041-0.000049
                   Y 0.000061 0.000073-0.000046-0.000066-0.000051 0.000045
                   Z 0.000237-0.000244-0.000085 0.000067-0.000057-0.000066
 25   H            X-0.000102 0.000025-0.000012-0.000020-0.000007-0.000003
                   Y 0.000030 0.000007 0.000007-0.000024-0.000007-0.000006
                   Z 0.000007-0.000012 0.000012 0.000013 0.000002-0.000013
 26   H            X-0.000063 0.000008 0.000001-0.000016-0.000001 0.000016
                   Y 0.000003 0.000016-0.000001-0.000017-0.000003 0.000003
                   Z-0.000053 0.000017-0.000004-0.000009 0.000001 0.000001
 27   CL           X-0.000799 0.000302-0.000086-0.000185 0.000003 0.000031
                   Y 0.000073-0.000043 0.000002 0.000040-0.000027 0.000013
                   Z-0.000159 0.000045-0.000017-0.000035-0.000006 0.000011
 28   H            X-0.000157-0.000183-0.000190-0.000849 0.000531-0.000180
                   Y-0.000452-0.000178-0.000136-0.000312 0.000785 0.000043
                   Z 0.000177 0.000058-0.000299-0.000188 0.000165-0.000299

                                   9                         10
                               C                          C         
                          X        Y        Z        X        Y        Z
  9   C            X 0.715763-0.061855-0.122205-0.003955 0.000442-0.001864
                   Y-0.061855 0.173237 0.058701 0.001124 0.000302-0.000019
                   Z-0.122205 0.058701 0.766437-0.000536 0.000346 0.001008
 10   C            X-0.003955 0.001124-0.000536 0.689478-0.040310 0.033608
                   Y 0.000442 0.000302 0.000346-0.040310 0.721043 0.090454
                   Z-0.001864-0.000019 0.001008 0.033608 0.090454 0.163135
 11   C            X 0.002418-0.000398-0.000068-0.201165-0.119142-0.027741
                   Y 0.002246-0.000568-0.000052-0.064596-0.248291-0.033343
                   Z 0.000866-0.000186-0.000214-0.018830-0.037032-0.074416
 12   C            X-0.037896 0.005711 0.030780 0.000012 0.000068-0.000011
                   Y 0.004283 0.001489-0.002749-0.000064 0.000035 0.000052
                   Z 0.007493-0.000756 0.006328 0.000249 0.000170 0.000108
 13   C            X-0.023777 0.001208-0.035570 0.000022 0.000021 0.000059
                   Y 0.001968 0.003168 0.003265 0.000029-0.000060 0.000046
                   Z-0.022297 0.002690 0.000967 0.000011-0.000109-0.000096
 14   C            X 0.004975 0.000419 0.003991 0.000180 0.000068-0.000014
                   Y 0.000379 0.006996-0.001020-0.000026-0.000080-0.000016
                   Z 0.004580-0.001074-0.003637 0.000096 0.000057 0.000041
 15   C            X 0.009332-0.000604-0.003186 0.000185 0.000055 0.000033
                   Y-0.000553 0.006434-0.000004-0.000040-0.000010 0.000014
                   Z-0.002096-0.000244-0.006363-0.000155-0.000044-0.000060
 16   C            X-0.005533 0.000742 0.001502-0.000319-0.000094-0.000068
                   Y 0.000500-0.000318-0.000281 0.000068 0.000010 0.000028
                   Z 0.000623-0.000244-0.003182-0.000067-0.000050-0.000019
 17   C            X-0.000880-0.002892-0.000560 0.000368-0.000232 0.000349
                   Y-0.007396 0.001950 0.001943-0.005669-0.001390-0.000856
                   Z 0.000424 0.000481 0.000575-0.000921-0.000072-0.000889
 18   H            X-0.000091 0.000395 0.000537-0.014307-0.026003-0.006018
                   Y 0.000604-0.000308-0.000177 0.005905 0.007290 0.001376
                   Z 0.001011-0.000084-0.000537 0.000684-0.001460 0.003161
 19   H            X 0.000174-0.000269-0.000483-0.000632 0.003139 0.000022
                   Y 0.000101 0.000101 0.000050 0.002997-0.003259-0.001440
                   Z-0.000227 0.000173 0.000095-0.000200-0.001598 0.007464
 20   H            X-0.081821-0.002677-0.070792 0.000405 0.000211-0.000118
                   Y-0.003975-0.054843-0.015010-0.000041-0.000194-0.000498
                   Z-0.069808-0.012130-0.286603-0.001062-0.000144-0.000154
 21   H            X-0.000143-0.000026-0.000302-0.102814 0.101704 0.012510
                   Y-0.000272 0.000022 0.000186 0.101959-0.297546-0.034759
                   Z 0.000007-0.000023-0.000108 0.012729-0.035145-0.045865
 22   H            X 0.000147-0.000050-0.000095-0.013650 0.005582-0.000130
                   Y-0.000003-0.000018 0.000012-0.027152 0.006350-0.001068
                   Z 0.000238-0.000015-0.000118-0.005494 0.000845 0.002469
 23   H            X 0.000856-0.000277 0.002654-0.000059-0.000019-0.000012
                   Y-0.000606-0.004158 0.000053 0.000037 0.000030 0.000008
                   Z-0.002706 0.000424 0.000279 0.000009-0.000002-0.000006
 24   H            X-0.000518-0.000345 0.000423-0.000183-0.000016-0.000012
                   Y-0.000073-0.003220 0.000123 0.000031-0.000000-0.000040
                   Z 0.001824-0.000243-0.000698-0.000209-0.000010-0.000036
 25   H            X 0.000202 0.000072 0.001253 0.000044 0.000026 0.000008
                   Y 0.000018 0.000330-0.000141 0.000004-0.000002 0.000002
                   Z-0.000289 0.000013 0.000314-0.000008-0.000004-0.000012
 26   H            X 0.000434-0.000116-0.001626 0.000027 0.000016 0.000020
                   Y-0.000008 0.000171 0.000122 0.000022-0.000001-0.000004
                   Z 0.000330-0.000052-0.000198 0.000025 0.000008 0.000008
 27   CL           X 0.003787-0.000621 0.000292 0.000365 0.000150 0.000128
                   Y-0.000425-0.000927 0.000037-0.000031-0.000000-0.000026
                   Z 0.000708-0.000068 0.000266 0.000065 0.000028 0.000023
 28   H            X-0.000067-0.000019 0.000018-0.000150 0.000092 0.000057
                   Y-0.000546-0.000089-0.000037-0.000197 0.000050 0.000027
                   Z 0.000032-0.000045 0.000158-0.000090-0.000071-0.000004

                                  11                         12
                               C                          C         
                          X        Y        Z        X        Y        Z
 11   C            X 0.755011-0.025213 0.036672 0.000025 0.000007-0.000154
                   Y-0.025213 0.658278 0.081330-0.000028 0.000078-0.000174
                   Z 0.036672 0.081330 0.151504-0.000015-0.000078-0.000053
 12   C            X 0.000025-0.000028-0.000015 0.676522-0.050460 0.032939
                   Y 0.000007 0.000078-0.000078-0.050460 0.151327 0.021384
                   Z-0.000154-0.000174-0.000053 0.032939 0.021384 0.729924
 13   C            X-0.000018-0.000033 0.000004 0.052458-0.004205 0.006280
                   Y 0.000020 0.000035-0.000059-0.002869 0.006916-0.002802
                   Z 0.000029 0.000017 0.000046 0.037475-0.006054-0.053084
 14   C            X-0.000109-0.000133-0.000014-0.326870 0.023017-0.063719
                   Y-0.000005 0.000021 0.000024 0.025329-0.069137 0.003768
                   Z-0.000068-0.000077-0.000033-0.005500-0.001913-0.132577
 15   C            X-0.000107-0.000133-0.000003-0.054449 0.005906 0.018152
                   Y-0.000025 0.000022-0.000002 0.005785-0.003594-0.002045
                   Z 0.000090 0.000100 0.000023 0.020008-0.002056-0.007871
 16   C            X 0.000176 0.000196 0.000034-0.011791 0.000191-0.037875
                   Y-0.000023-0.000029-0.000029-0.001325 0.007986 0.003929
                   Z 0.000037 0.000045 0.000006-0.087455 0.008618 0.006734
 17   C            X-0.007475-0.004757-0.001687-0.000288 0.000449 0.000074
                   Y-0.001563 0.012033 0.000830 0.000031-0.000119 0.000798
                   Z-0.000827 0.000522 0.007706 0.000102-0.000069 0.000048
 18   H            X-0.004541 0.002619-0.000648-0.000001-0.000004 0.000065
                   Y 0.001831 0.001493-0.001109 0.000041 0.000010-0.000046
                   Z-0.000725-0.001242 0.007120 0.000038 0.000037-0.000004
 19   H            X 0.011579 0.013749 0.002400 0.000001 0.000012-0.000073
                   Y-0.017666-0.016385-0.004396 0.000017-0.000008 0.000001
                   Z-0.002558-0.002499 0.005170-0.000009 0.000008 0.000010
 20   H            X-0.000042-0.000358 0.000054 0.001091-0.000247-0.002128
                   Y 0.000240-0.000055-0.000085-0.000045-0.001310 0.000365
                   Z 0.000532 0.000766 0.000192 0.001283 0.000048 0.000917
 21   H            X 0.011086-0.019494-0.002790-0.000011-0.000014-0.000061
                   Y 0.012844-0.017077-0.002729-0.000009 0.000010 0.000043
                   Z 0.002534-0.004876 0.004183 0.000015 0.000003 0.000007
 22   H            X-0.343460 0.034263-0.014523 0.000010-0.000004-0.000036
                   Y 0.033669-0.061599-0.001862-0.000001-0.000004 0.000003
                   Z-0.014366-0.001767-0.037582 0.000004 0.000010 0.000008
 23   H            X 0.000030 0.000037-0.000003-0.087630 0.000983-0.085837
                   Y-0.000002-0.000046-0.000004 0.000733-0.038820-0.004147
                   Z-0.000001 0.000001 0.000007-0.086462-0.003748-0.313914
 24   H            X 0.000079 0.000111 0.000016-0.000363 0.000545-0.002653
                   Y 0.000000-0.000042-0.000019 0.000536 0.006163-0.000173
                   Z 0.000117 0.000123 0.000025-0.003284-0.000010-0.003816
 25   H            X-0.000026-0.000034-0.000010-0.015147 0.002874 0.024367
                   Y-0.000003-0.000005-0.000001 0.001658 0.003715-0.002235
                   Z 0.000004 0.000005 0.000008-0.007443 0.000940 0.008809
 26   H            X-0.000017-0.000019 0.000001-0.000975 0.000019 0.000454
                   Y-0.000010-0.000016-0.000012-0.000027-0.000967 0.000017
                   Z-0.000013-0.000016 0.000001 0.000572-0.000009 0.000637
[...]
                   Y  0.00001536  0.00010505  0.00005765 -0.00002582 -0.00035787
                   Z -0.00003045  0.00004227 -0.00002841 -0.00000834 -0.00005510

 TRANS. SAYVETZ    X  0.00000721 -0.00000829  0.00001596 -0.00000301 -0.00001429
                   Y -0.00000929  0.00001089 -0.00002426  0.00000614  0.00002356
                   Z -0.00000428  0.00000439 -0.00000496  0.00000212  0.00000463
               TOTAL  0.00001251  0.00001437  0.00002946  0.00000716  0.00002794

   ROT. SAYVETZ    X -0.00026498 -0.00055063 -0.00007238  0.00028985 -0.00040007
                   Y -0.00065561 -0.00041047  0.00011567  0.00140243 -0.00040401
                   Z  0.00032807  0.00034280  0.00107393 -0.00008972 -0.00112674
               TOTAL  0.00077953  0.00076759  0.00108256  0.00143487  0.00126207

                           81          82          83          84
       FREQUENCY:      3248.63     3251.28     3262.15     3775.15  
        SYMMETRY:         A           A           A           A   
    REDUCED MASS:      1.09375     1.09574     1.09359     1.06522
    IR INTENSITY:      0.03954     0.04126     0.10391     2.19142
  RAMAN ACTIVITY:       52.405     189.558     157.198     146.333
  DEPOLARIZATION:        0.322       0.142       0.182       0.283

  1   O            X  0.00000437 -0.00000594  0.00041727  0.02340881
                   Y  0.00000310 -0.00000467 -0.00034111 -0.05440492
                   Z -0.00000015  0.00000134 -0.00000376 -0.00909317
  2   O            X -0.00000232  0.00000866  0.00000635  0.00040714
                   Y  0.00000529 -0.00001288  0.00014440  0.00018627
                   Z  0.00000778  0.00000574  0.00003123 -0.00006354
  3   N            X  0.00011282 -0.00009883 -0.00009458  0.00008814
                   Y -0.00000448  0.00004163 -0.00002454  0.00001989
                   Z  0.00006971  0.00026808  0.00003435  0.00000984
  4   C            X -0.00004826  0.00004343  0.00070622 -0.00004552
                   Y  0.00000436 -0.00000628  0.00035918 -0.00010293
                   Z -0.00000627  0.00001427  0.00011584  0.00001163
  5   C            X  0.00000532 -0.00000021  0.00244106 -0.00020532
                   Y  0.00000948  0.00000116 -0.00077630  0.00080431
                   Z  0.00000506 -0.00000638  0.00001978  0.00004534
  6   C            X -0.00054988  0.00122961 -0.00001623  0.00001500
                   Y  0.00010591 -0.00006417  0.00000522  0.00000247
                   Z  0.00140439  0.00137219  0.00000162  0.00000783
  7   C            X  0.00007719 -0.00006531  0.00282496 -0.00005039
                   Y  0.00006065 -0.00005352  0.00307662 -0.00000698
                   Z  0.00002189 -0.00001859  0.00082010 -0.00001009
  8   C            X  0.00006181 -0.00008650 -0.04664854 -0.00001214
                   Y  0.00007538 -0.00010941 -0.06463926  0.00011103
                   Z  0.00001242 -0.00001982 -0.01281969  0.00000869
  9   C            X -0.00003772  0.00039461  0.00002945 -0.00010008
                   Y -0.00002039 -0.00005552 -0.00000211 -0.00000717
                   Z -0.00035899 -0.00027781 -0.00009925  0.00000389
 10   C            X -0.00004891  0.00006499 -0.00154446 -0.00001710
                   Y  0.00008522 -0.00012790  0.00615941 -0.00000669
                   Z  0.00000760 -0.00001423  0.00090346 -0.00000065
 11   C            X -0.00005378  0.00009992 -0.02275129  0.00003711
                   Y  0.00000530 -0.00000755  0.00551294  0.00004151
                   Z -0.00000045  0.00000510 -0.00059937  0.00001694
 12   C            X -0.00821842  0.00319300 -0.00000794 -0.00000413
                   Y  0.00011142  0.00000727 -0.00000101  0.00000570
                   Z -0.01577276  0.00736907 -0.00003746  0.00001156
 13   C            X  0.01289898  0.03484906 -0.00002018  0.00000098
                   Y -0.00168796 -0.00458639  0.00000095  0.00000002
                   Z -0.01324406 -0.03658360  0.00002935 -0.00000844
 14   C            X  0.05041665 -0.01907473  0.00005224  0.00000536
                   Y -0.00732455  0.00279880 -0.00000794 -0.00000281
                   Z -0.05743979  0.02241118 -0.00007379  0.00001053
 15   C            X -0.00903768 -0.02185660  0.00001403  0.00001010
                   Y  0.00015588  0.00024385  0.00000120 -0.00000205
                   Z -0.02219535 -0.05738682  0.00005583 -0.00001004
 16   C            X  0.00107169 -0.00334018  0.00001508 -0.00002328
                   Y  0.00002910  0.00035513 -0.00000077  0.00000219
                   Z  0.00361420  0.00051271  0.00000512 -0.00000334
 17   C            X  0.00000209 -0.00000689 -0.00076544  0.00102751
                   Y -0.00001955  0.00003586 -0.00034557 -0.00206207
                   Z -0.00000366  0.00000205 -0.00007013 -0.00033626
 18   H            X -0.00065574  0.00048967 -0.02729430  0.00015581
                   Y -0.00080446  0.00054917 -0.03454314  0.00013194
                   Z -0.00020388  0.00017813 -0.00906468 -0.00001413
 19   H            X -0.00063589  0.00088682  0.53605207 -0.00032314
                   Y -0.00088232  0.00125706  0.72994784  0.00080295
                   Z -0.00016937  0.00025523  0.14408414 -0.00029766
 20   H            X  0.00043322 -0.00204889  0.00019540  0.00003277
                   Y  0.00004228 -0.00005043  0.00001745 -0.00014656
                   Z  0.00126614 -0.00301456  0.00064870  0.00008419
 21   H            X  0.00043676 -0.00067425  0.02315158 -0.00004504
                   Y -0.00100825  0.00151731 -0.05707713  0.00011684
                   Z -0.00013370  0.00020647 -0.00776431 -0.00000159
 22   H            X  0.00066745 -0.00115615  0.24361533 -0.00023672
                   Y -0.00007147  0.00012836 -0.03173792  0.00002174
                   Z  0.00003802 -0.00004674  0.01067815  0.00000299
 23   H            X  0.06238272 -0.02674965  0.00011764 -0.00005033
                   Y  0.00168840 -0.00081951  0.00001541  0.00000070
                   Z  0.17473822 -0.07682989  0.00031241  0.00001166
 24   H            X -0.13672549 -0.37039645  0.00023152 -0.00007148
                   Y  0.01830012  0.04962078 -0.00002152 -0.00001238
                   Z  0.15543215  0.42249046 -0.00021856 -0.00005108
 25   H            X -0.56939962  0.21685846 -0.00069184  0.00006110
                   Y  0.08301470 -0.03162627  0.00010745  0.00000457
                   Z  0.65184791 -0.24856822  0.00077381 -0.00005297
 26   H            X  0.09173207  0.23128898 -0.00022056  0.00003293
                   Y -0.00062188 -0.00146918  0.00000674  0.00000640
                   Z  0.25512657  0.64593061 -0.00061098  0.00006564
 27   CL           X -0.00011319  0.00020286 -0.00000303  0.00000705
                   Y  0.00001008 -0.00001876  0.00000036 -0.00000091
                   Z -0.00003573  0.00003438 -0.00000062  0.00000123
 28   H            X -0.00003043  0.00004021  0.00148305 -0.38660229
                   Y  0.00004766 -0.00008603 -0.00010413  0.87389267
                   Z -0.00000539 -0.00002215  0.00015697  0.14840380

 TRANS. SAYVETZ    X  0.00001096  0.00000234  0.00001045 -0.00000286
                   Y -0.00000784 -0.00000759 -0.00000906  0.00000675
                   Z  0.00000306 -0.00000457 -0.00000112  0.00000129
               TOTAL  0.00001382  0.00000916  0.00001387  0.00000744

   ROT. SAYVETZ    X  0.00026482  0.00022646 -0.00015116 -0.00010406
                   Y  0.00096879  0.00138286 -0.00003345  0.00000887
                   Z -0.00006218 -0.00033800  0.00085854 -0.00030540
               TOTAL  0.00100625  0.00144146  0.00087239  0.00032276

 REFERENCE ON SAYVETZ CONDITIONS - A. SAYVETZ, J.CHEM.PHYS., 7, 383-389(1939).

 NOTE - THE MODES J,K ARE ORTHONORMALIZED ACCORDING TO
 SUM ON I   M(I) * (X(I,J)*X(I,K) + Y(I,J)*Y(I,K) + Z(I,J)*Z(I,K)) = DELTA(J,K)

  MODE FREQ(CM**-1)  SYMMETRY  RED. MASS  IR INTENS.  RAMAN ACT.  DEPOLARIZ.
     1      14.736    A        4.521283    0.023146   11.092287    0.702720
     2       1.403    A        6.856017    0.000062    0.004709    0.678907
     3       0.278    A        8.807422    0.000012    0.006143    0.720167
     4       0.120    A        9.595896    0.000001    0.000422    0.727783
     5       0.062    A        9.255312    0.000002    0.001292    0.724624
     6       0.199    A        9.172295    0.000010    0.004793    0.715134
     7       4.801    A        7.713286    0.004719    1.830632    0.717514
     8      28.834    A        9.713009    0.011963    3.550060    0.679054
     9      32.589    A        8.554454    0.005003    5.128840    0.744905
    10      54.732    A        6.757455    0.007670    0.395186    0.173064
    11      80.610    A        6.929846    0.097294    2.207907    0.455738
    12     116.363    A        4.712406    0.011746    2.141232    0.737571
    13     156.679    A        5.582451    0.060143   20.100953    0.342754
    14     173.107    A        4.454154    0.078664    0.503723    0.708285
    15     219.612    A        6.547731    0.075364    2.397794    0.442250
    16     235.820    A        8.970973    0.014397    2.925940    0.346636
    17     280.899    A        5.833881    0.006649    6.669607    0.384173
    18     324.031    A        4.341391    0.075237    8.305861    0.291482
    19     372.940    A        5.842393    0.154799    4.910597    0.080031
    20     377.965    A        6.792792    0.418381    1.989649    0.749159
    21     411.474    A        6.283239    0.147453    2.489970    0.333618
    22     431.279    A        2.831635    0.011142    0.338894    0.476976
    23     438.993    A        3.437980    0.201406    3.702997    0.368416
    24     460.641    A        7.106601    0.462959    5.744628    0.742796
    25     515.395    A        3.316861    0.759598    0.665387    0.745430
    26     561.865    A        3.306876    0.132219    7.867686    0.252404
    27     567.355    A        3.890033    0.164793    1.623410    0.582115
    28     587.509    A        1.227778    2.410859    2.914632    0.363971
    29     605.673    A        7.274960    0.312033   11.287930    0.558015
    30     642.262    A        5.219418    0.974625    3.302386    0.120792
    31     655.160    A        7.073728    0.010303    6.355233    0.712081
    32     699.155    A        5.907573    0.049827   43.626953    0.123365
    33     712.645    A        3.857370    1.025322   12.814963    0.144091
    34     739.475    A        3.591057    0.002116    1.119328    0.635817
    35     754.940    A        4.613737    0.304741    7.191966    0.336543
    36     787.411    A        1.749715    1.199787   13.404672    0.641042
    37     817.689    A        2.801183    0.038180    6.461436    0.513732
    38     852.806    A        1.443077    0.407670    3.208027    0.517519
    39     858.971    A        3.596431    0.032061    2.924598    0.160153
    40     865.991    A        1.466600    0.788813    2.617329    0.745480
    41     871.571    A        4.188537    3.405175   28.834548    0.627059
    42     910.555    A        1.646809    0.253026    2.960310    0.508945
    43     985.500    A        1.375958    0.086407    1.788021    0.372582
    44    1003.273    A        1.388652    0.121334    0.252431    0.729628
    45    1014.461    A        1.389311    0.037268    0.800036    0.387941
    46    1025.077    A        1.639808    0.653454    5.562011    0.426528
    47    1026.000    A        1.355446    0.024706    0.125168    0.533333
    48    1036.488    A        5.084833    7.267601    3.056661    0.713923
    49    1040.711    A        3.703396    0.900728   13.445703    0.157850
    50    1068.287    A        2.417595    0.577112   82.473378    0.089694
    51    1094.653    A        3.142471    1.776318   61.365882    0.110088
    52    1136.737    A        1.438527    0.235110   20.925431    0.230892
    53    1152.452    A        1.835141    1.184817    1.464173    0.738440
    54    1182.851    A        1.903133    4.262225  224.289123    0.164688
    55    1208.358    A        1.295492    0.757320  166.187929    0.249735
    56    1210.924    A        1.116202    0.010174   12.477627    0.612255
    57    1216.906    A        2.056588    0.676921   81.563922    0.267006
    58    1275.515    A        2.345536    0.021145  120.907744    0.325648
    59    1303.828    A        1.757915    0.750928    6.676931    0.223416
    60    1335.860    A        2.392596    1.556220   15.134532    0.724701
    61    1338.355    A        1.334519    0.349596   17.396731    0.423191
    62    1356.275    A        8.281947    0.230110   28.097765    0.318625
    63    1363.883    A        7.587025    0.544328   36.981077    0.390726
    64    1412.947    A        1.987170    0.733374   21.693723    0.497006
    65    1447.006    A        1.937609    0.061373    8.393125    0.315195
    66    1482.563    A        2.078202    0.150809   21.244163    0.244661
    67    1513.024    A        2.340404    1.564657   59.448507    0.230638
    68    1526.789    A        2.455111    1.867819   17.437817    0.363308
    69    1595.887    A        5.874367    1.270319  140.638213    0.225297
    70    1618.223    A        7.136100    0.746968  126.738031    0.372976
    71    1631.437    A        5.636151    2.753325  926.507419    0.424784
    72    1641.194    A        5.725217    0.354128   34.609623    0.692099
    73    1687.108    A        8.509037    5.055489  192.751035    0.141487
    74    1722.520    A        9.079009   13.680670 1376.101774    0.331253
    75    3086.719    A        1.087792    0.738426   61.537599    0.451219
    76    3212.153    A        1.089583    0.141362   64.922425    0.498944
    77    3212.414    A        1.087275    0.100832   78.814330    0.653063
    78    3230.041    A        1.090663    0.268491  129.599386    0.601131
    79    3236.512    A        1.088571    0.000777   38.746582    0.749251
    80    3238.682    A        1.095873    0.290810  180.590526    0.133473
    81    3248.627    A        1.093749    0.039542   52.405255    0.322440
    82    3251.284    A        1.095735    0.041256  189.558342    0.141999
    83    3262.152    A        1.093590    0.103910  157.197881    0.181938
    84    3775.151    A        1.065222    2.191422  146.333280    0.282736

     -------------------------------
     THERMOCHEMISTRY AT T=  298.15 K
     -------------------------------

 USING IDEAL GAS, RIGID ROTOR, HARMONIC NORMAL MODE APPROXIMATIONS.
 P=  1.01325E+05 PASCAL.
 ALL FREQUENCIES ARE SCALED BY   1.00000
 THE MOMENTS OF INERTIA ARE (IN AMU*BOHR**2)
           1828.06056         12468.93571         13558.98711
 THE ROTATIONAL SYMMETRY NUMBER IS  1.0
 THE ROTATIONAL CONSTANTS ARE (IN GHZ)
      0.98634     0.14461     0.13298
   1 IMAGINARY FREQUENCY VIBRATION(S) IS(ARE) EXCLUDED
     FROM THE FOLLOWING THERMOCHEMICAL ANALYSIS.
      8 -     84 VIBRATIONAL MODES ARE USED IN THERMOCHEMISTRY.
 THE HARMONIC ZERO POINT ENERGY IS (SCALED BY   1.000)
        0.208707 HARTREE/MOLECULE    45805.909836 CM**-1/MOLECULE 
      130.965800 KCAL/MOL              547.960906 KJ/MOL

               Q               LN Q
 ELEC.     1.00000E+00       0.000000
 TRANS.    1.63872E+08      18.914594
 ROT.      6.29311E+06      15.654965
 VIB.      1.09139E+05      11.600374
 TOT.      1.12550E+20      46.169934

              E         H         G         CV        CP        S
           KJ/MOL    KJ/MOL    KJ/MOL   J/MOL-K   J/MOL-K   J/MOL-K
 ELEC.      0.000     0.000     0.000     0.000     0.000     0.000
 TRANS.     3.718     6.197   -46.888    12.472    20.786   178.050
 ROT.       3.718     3.718   -38.808    12.472    12.472   142.633
 VIB.     578.094   578.094   519.204   207.206   207.206   197.518
 TOTAL    585.531   588.010   433.508   232.150   240.464   518.201
 VIB. THERMAL CORRECTION E(T)-E(0) = H(T)-H(0) =     30133.299 J/MOL

              E         H         G         CV        CP        S
         KCAL/MOL  KCAL/MOL  KCAL/MOL CAL/MOL-K CAL/MOL-K CAL/MOL-K
 ELEC.      0.000     0.000     0.000     0.000     0.000     0.000
 TRANS.     0.889     1.481   -11.207     2.981     4.968    42.555
 ROT.       0.889     0.889    -9.275     2.981     2.981    34.090
 VIB.     138.168   138.168   124.093    49.524    49.524    47.208
 TOTAL    139.945   140.538   103.611    55.485    57.472   123.853
 VIB. THERMAL CORRECTION E(T)-E(0) = H(T)-H(0) =      7202.031 CAL/MOL

 ..... DONE WITH NORMAL COORDINATE ANALYSIS .....
 CPU     0: STEP CPU TIME=     0.02 TOTAL CPU TIME=       3929.4 (     65.5 MIN)
 TOTAL WALL CLOCK TIME=       4107.7 SECONDS, CPU UTILIZATION IS    95.66%
               1602548  WORDS OF DYNAMIC MEMORY USED
 EXECUTION OF GAMESS TERMINATED NORMALLY Fri May 17 15:37:22 2024
 DDI: 263640 bytes (0.3 MB / 0 MWords) used by master data server.

 ----------------------------------------
 CPU timing information for all processes
 ========================================
 0: 3889.116 + 40.512 = 3929.629
 1: 3891.941 + 22.313 = 3914.255
 2: 3891.936 + 21.973 = 3913.910
 3: 3907.92 + 22.86 = 3929.178
 4: 3896.315 + 22.643 = 3918.958
 5: 3918.182 + 21.712 = 3939.895
 6: 3917.706 + 22.55 = 3939.762
 7: 3912.444 + 22.861 = 3935.305
 8: 3920.873 + 22.525 = 3943.399
 9: 3914.987 + 22.936 = 3937.923
 10: 3911.896 + 22.935 = 3934.832
 11: 3889.888 + 23.204 = 3913.92
 12: 3918.113 + 22.416 = 3940.530
 13: 3914.248 + 21.937 = 3936.185
 14: 3885.472 + 23.17 = 3908.490
 15: 3877.318 + 22.206 = 3899.525
 16: 0.153 + 0.16 = 0.170
 17: 0.125 + 0.18 = 0.143
 18: 0.121 + 0.16 = 0.137
 19: 0.147 + 0.23 = 0.170
 20: 0.136 + 0.17 = 0.154
 21: 0.128 + 0.21 = 0.150
 22: 0.115 + 0.14 = 0.130
 23: 0.133 + 0.22 = 0.156
 24: 0.117 + 0.12 = 0.130
 25: 0.136 + 0.20 = 0.157
 26: 0.128 + 0.19 = 0.147
 27: 0.138 + 0.22 = 0.161
 28: 0.126 + 0.08 = 0.134
 29: 0.114 + 0.17 = 0.131
 30: 0.153 + 0.15 = 0.169
 31: 0.91 + 0.18 = 0.110
 ----------------------------------------
else
unset echo
----- accounting info -----
Files used on the master node cn0282 were:
-rw-------. 1 lever046 lever046   119178 May 17 14:28 /tmp/gms_bzorig_b3lyp_nosmd_ram.F05
-rw-------. 1 lever046 lever046 58982400 May 17 15:37 /tmp/gms_bzorig_b3lyp_nosmd_ram.F10
-rw-------. 1 lever046 lever046  7178976 May 17 15:28 /tmp/gms_bzorig_b3lyp_nosmd_ram.F22
-rw-------. 1 lever046 lever046  7178976 May 17 15:28 /tmp/gms_bzorig_b3lyp_nosmd_ram.F22.001
-rw-------. 1 lever046 lever046  7178976 May 17 15:28 /tmp/gms_bzorig_b3lyp_nosmd_ram.F22.002
-rw-------. 1 lever046 lever046  7178976 May 17 15:28 /tmp/gms_bzorig_b3lyp_nosmd_ram.F22.003
-rw-------. 1 lever046 lever046  7178976 May 17 15:28 /tmp/gms_bzorig_b3lyp_nosmd_ram.F22.004
-rw-------. 1 lever046 lever046  7178976 May 17 15:28 /tmp/gms_bzorig_b3lyp_nosmd_ram.F22.005
-rw-------. 1 lever046 lever046  7178976 May 17 15:28 /tmp/gms_bzorig_b3lyp_nosmd_ram.F22.006
-rw-------. 1 lever046 lever046  7178976 May 17 15:28 /tmp/gms_bzorig_b3lyp_nosmd_ram.F22.007
-rw-------. 1 lever046 lever046  7178976 May 17 15:28 /tmp/gms_bzorig_b3lyp_nosmd_ram.F22.008
-rw-------. 1 lever046 lever046  7178976 May 17 15:28 /tmp/gms_bzorig_b3lyp_nosmd_ram.F22.009
-rw-------. 1 lever046 lever046  7178976 May 17 15:28 /tmp/gms_bzorig_b3lyp_nosmd_ram.F22.010
-rw-------. 1 lever046 lever046  7178976 May 17 15:28 /tmp/gms_bzorig_b3lyp_nosmd_ram.F22.011
-rw-------. 1 lever046 lever046  7178976 May 17 15:28 /tmp/gms_bzorig_b3lyp_nosmd_ram.F22.012
-rw-------. 1 lever046 lever046  7178976 May 17 15:28 /tmp/gms_bzorig_b3lyp_nosmd_ram.F22.013
-rw-------. 1 lever046 lever046  7178976 May 17 15:28 /tmp/gms_bzorig_b3lyp_nosmd_ram.F22.014
-rw-------. 1 lever046 lever046  7178976 May 17 15:28 /tmp/gms_bzorig_b3lyp_nosmd_ram.F22.015
-rw-------. 1 lever046 lever046        7 May 17 14:28 /tmp/gms_bzorig_b3lyp_nosmd_ram.nodes.mpd
ls: No match.
ls: No match.
ls: No match.
Fri May 17 15:37:24 CDT 2024
0.372u 0.380s 1:08:36.98 0.0%	0+0k 5496+6656io 4pf+0w
