/home/lever046/lever046/psi4conda/etc/profile.d/conda.cshnconda: No such file or directory.
----- GAMESS execution script 'rungms' -----
This job is running on host cn0310
under operating system Linux at Fri May 17 14:31:09 CDT 2024
SLURM has assigned the following compute nodes to this run:
cn0310
Available scratch disk space (Kbyte units) at beginning of the job is
Filesystem           1K-blocks      Used Available Use% Mounted on
tmpfs                  9982804     36892   9929528   1% /tmp
GAMESS temporary binary files will be written to /tmp
GAMESS supplementary output files will be written to /scratch.global/lever046/gamess/29714848
Copying input file gms_bzorig_b3lyp_nosmd_uvv.inp to your run's scratch directory...
cp gms_bzorig_b3lyp_nosmd_uvv.inp /tmp/gms_bzorig_b3lyp_nosmd_uvv.F05
unset echo
setenv I_MPI_WAIT_MODE enable
setenv I_MPI_PIN disable
setenv I_MPI_DEBUG 0
setenv I_MPI_STATS 0
setenv I_MPI_DAT_LIBRARY libdat2.so
setenv I_MPI_SHM_LMT shm
unset echo
MPI kickoff will run GAMESS on 16 cores in 1 nodes.
The binary to be executed is /common/software/install/migrated/gamess/october_2019/gamess.00.x
MPI will run 16 compute processes and 16 data servers,
    placing 16 of each process type onto each node.
The scratch disk space on each node is /tmp, with free space
Filesystem           1K-blocks      Used Available Use% Mounted on
tmpfs                  9982804     36904   9929516   1% /tmp
setenv I_MPI_HYDRA_ENV all
setenv I_MPI_PERHOST 32
unset echo
if ( impi == impi ) then
mpirun -hostfile /tmp/gms_bzorig_b3lyp_nosmd_uvv.processes.mpd -np 32 /common/software/install/migrated/gamess/october_2019/gamess.00.x
srun: Job 29714848 step creation temporarily disabled, retrying (Requested nodes are busy)
srun: Step created for job 29714848
          ******************************************************
          *         GAMESS VERSION = 30 SEP 2019 (R2)          *
          *             FROM IOWA STATE UNIVERSITY             *
          * M.W.SCHMIDT, K.K.BALDRIDGE, J.A.BOATZ, S.T.ELBERT, *
          *   M.S.GORDON, J.H.JENSEN, S.KOSEKI, N.MATSUNAGA,   *
          *          K.A.NGUYEN, S.J.SU, T.L.WINDUS,           *
          *       TOGETHER WITH M.DUPUIS, J.A.MONTGOMERY       *
          *         J.COMPUT.CHEM.  14, 1347-1363(1993)        *
          **************** 64 BIT INTEL VERSION ****************

  SINCE 1993, STUDENTS AND POSTDOCS WORKING AT IOWA STATE UNIVERSITY
  AND ALSO IN THEIR VARIOUS JOBS AFTER LEAVING ISU HAVE MADE IMPORTANT
  CONTRIBUTIONS TO THE CODE:
     IVANA ADAMOVIC, CHRISTINE AIKENS, YURI ALEXEEV, POOJA ARORA,
     ANDREY ASADCHEV, ROB BELL, PRADIPTA BANDYOPADHYAY, JONATHAN BENTZ,
     COLLEEN BERTONI, BRETT BODE, KURT BRORSEN, CALEB CARLIN, GALINA CHABAN,
     WEI CHEN, CHEOL HO CHOI, PAUL DAY, ALBERT DEFUSCO, NUWAN DESILVA,
     TIM DUDLEY, DMITRI FEDOROV, ALEX FINDLATER, GRAHAM FLETCHER, 
     MARK FREITAG, KURT GLAESEMANN, EMILIE B GUIDEZ, ANASTASIA GUNINA, 
     DAN KEMP, SAROM SOK LEANG, GRANT MERRILL,
     NORIYUKI MINEZAWA, JONATHAN MULLIN,
     TAKESHI NAGATA, SEAN NEDD, HEATHER NETZLOFF, BOSILJKA NJEGIC, RYAN OLSON,
     MIKE PAK, BUU PHAM, DAVID POOLE,
     SPENCER PRUITT, LUKE ROSKOP, TOSAPORN SATTASATHUCHANA,
     JIM SHOEMAKER, LYUDMILA SLIPCHENKO,
     TONY SMITH, JIE SONG, TETSUYA TAKETSUGU, SIMON WEBB,
     JORGE LUIS GALVEZ VALLEJO, PENG XU, SOOHAENG YOO,
     FEDERICO ZAHARIEV

  ADDITIONAL CODE HAS BEEN PROVIDED BY COLLABORATORS IN OTHER GROUPS:
     IOWA STATE UNIVERSITY:
          JOE IVANIC, AARON WEST, LAIMUTIS BYTAUTAS, KLAUS RUEDENBERG
     UNIVERSITY OF TOKYO: KIMIHIKO HIRAO, TAKAHITO NAKAJIMA,
          TAKAO TSUNEDA, MUNEAKI KAMIYA, SUSUMU YANAGISAWA,
          KIYOSHI YAGI, MAHITO CHIBA, SEIKEN TOKURA, NAOAKI KAWAKAMI
     UNIVERSITY OF AARHUS: FRANK JENSEN
     UNIVERSITY OF IOWA: VISVALDAS KAIRYS, HUI LI
     NATIONAL INST. OF STANDARDS AND TECHNOLOGY: WALT STEVENS, DAVID GARMER
     UNIVERSITY OF PISA: BENEDETTA MENNUCCI, JACOPO TOMASI
     UNIVERSITY OF MEMPHIS: HENRY KURTZ, PRAKASHAN KORAMBATH
     UNIVERSITY OF ALBERTA: TOBY ZENG, MARIUSZ KLOBUKOWSKI
     UNIVERSITY OF NEW ENGLAND: MARK SPACKMAN
     MIE UNIVERSITY: HIROAKI UMEDA
     NAT. INST. OF ADVANCED INDUSTRIAL SCIENCE AND TECHNOLOGY: KAZUO KITAURA
     MICHIGAN STATE UNIVERSITY:
          KAROL KOWALSKI, MARTA WLOCH, JEFFREY GOUR, JESSE LUTZ,
          WEI LI, JUN SHEN, J. EMILIANO DEUSTUA, PIOTR PIECUCH
     UNIVERSITY OF MINNESOTA:
          ANDREW SAND, PRACHI SHARMA, YINAN SHU
     UNIVERSITY OF SILESIA: MONIKA MUSIAL, STANISLAW KUCHARSKI
     FACULTES UNIVERSITAIRES NOTRE-DAME DE LA PAIX:
          OLIVIER QUINET, BENOIT CHAMPAGNE
     UNIVERSITY OF CALIFORNIA - SANTA BARBARA: BERNARD KIRTMAN
     INSTITUTE FOR MOLECULAR SCIENCE:
          KAZUYA ISHIMURA, MICHIO KATOUDA, AND SHIGERU NAGASE
     UNIVERSITY OF NOTRE DAME: ANNA POMOGAEVA, DAN CHIPMAN
     KYUSHU UNIVERSITY:
          HARUYUKI NAKANO,
          FENG LONG GU, JACEK KORCHOWIEC, MARCIN MAKOWSKI, AND YURIKO AOKI,
          HIROTOSHI MORI AND EISAKU MIYOSHI
     PENNSYLVANIA STATE UNIVERSITY:
          TZVETELIN IORDANOV, CHET SWALINA, JONATHAN SKONE,
          SHARON HAMMES-SCHIFFER
     WASEDA UNIVERSITY:
          MASATO KOBAYASHI, TOMOKO AKAMA, TSUGUKI TOUMA,
          TAKESHI YOSHIKAWA, YASUHIRO IKABATA, JUNJI SEINO,
          YUYA NAKAJIMA, HIROMI NAKAI
     NANJING UNIVERSITY: SHUHUA LI
     UNIVERSITY OF NEBRASKA:
          PEIFENG SU, DEJUN SI, NANDUN THELLAMUREGE, YALI WANG, HUI LI
     UNIVERSITY OF ZURICH: ROBERTO PEVERATI, KIM BALDRIDGE
     N. COPERNICUS UNIVERSITY AND JACKSON STATE UNIVERSITY:
          MARIA BARYSZ
     UNIVERSITY OF COPENHAGEN: Jimmy Kromann, CASPER STEINMANN
     TOKYO INSTITUTE OF TECHNOLOGY: HIROYA NAKATA
     NAGOYA UNIVERSITY: YOSHIO NISHIMOTO, STEPHAN IRLE
     MOSCOW STATE UNIVERSITY: VLADIMIR MIRONOV
     A.N.NESMEYANOV INSTITUTE OF ORGANOELEMENT COMPOUNDS OF RUSSIAN ACADEMY OF SCIENCES:
          IGOR S. GERASIMOV
     JOHANNES KEPLER UNIVERSITY LINZ:
          CHRISTIAN FRIEDL


 PARALLEL VERSION RUNNING ON       16 PROCESSORS IN        1 NODES.

 EXECUTION OF GAMESS BEGUN Fri May 17 14:31:14 2024

            ECHO OF THE FIRST FEW INPUT CARDS -
 INPUT CARD> $BASIS GBASIS=N31 NGAUSS=6 NPFUNC=1 DIFFSP=.t. $END                            
 INPUT CARD> $CONTRL SCFTYP=RHF RUNTYP=ENERGY ICHARG=0 MULT=1 MAXIT=200 $END                
 INPUT CARD> $CONTRL DFTTYP=B3LYP ISPHER=1 TDDFT=EXCITE $END                                
 INPUT CARD> $TDDFT NSTATE=10 $END                                                          
 INPUT CARD> $FORCE METHOD=SEMINUM $END                                                     
 INPUT CARD> $SCF DIRSCF=.t. DAMP=.t. $END                                                  
 INPUT CARD> $SYSTEM MWORDS=100 $END                                                        
 INPUT CARD> $DATA                                                                          
 INPUT CARD> Title                                                                          
 INPUT CARD> C1                                                                             
 INPUT CARD> O           8.0   2.7870899748   2.7869411988   0.2954048690                   
 INPUT CARD> O           8.0   0.6158922338   2.1312735546   0.5277004696                   
 INPUT CARD> N           7.0   0.1006018416  -0.5676714395  -0.3093096461                   
 INPUT CARD> C           6.0   1.4863111939  -0.6700700005  -0.1005065814                   
 INPUT CARD> C           6.0   2.3354226986   0.4468318863   0.1450415820                   
 INPUT CARD> C           6.0  -2.2149152777  -0.2863491489   0.3052385731                   
 INPUT CARD> C           6.0   2.0718004843  -1.9427001936  -0.2827144094                   
 INPUT CARD> C           6.0   3.7350264036   0.2477933439   0.1929173886                   
 INPUT CARD> C           6.0  -0.7834172039  -0.4062230222   0.6088169735                   
 INPUT CARD> C           6.0   3.4524969303  -2.1186640113  -0.2020750371                   
 INPUT CARD> C           6.0   4.2947555100  -1.0175739354   0.0321288014                   
 INPUT CARD> C           6.0  -3.1359981305  -0.1527983017   1.3607689537                   
 INPUT CARD> C           6.0  -2.6855837113  -0.2893777787  -1.0233470866                   
 INPUT CARD> C           6.0  -4.5077762761  -0.0289275970   1.1039126245                   
 INPUT CARD> C           6.0  -4.0506020678  -0.1650717888  -1.2928838486                   
 INPUT CARD> C           6.0  -4.9397885811  -0.0373932875  -0.2214349417                   
 INPUT CARD> C           6.0   1.7981255772   1.8059111404   0.3358644687                   
 INPUT CARD> H           1.0   1.4175897377  -2.7775268461  -0.5009265426                   
 INPUT CARD> H           1.0   4.3663338950   1.1085545306   0.3628034855                   
 INPUT CARD> H           1.0  -0.5089437245  -0.3457160388   1.6662701883                   
 INPUT CARD> H           1.0   3.8742582695  -3.1085354965  -0.3340797845                   
 INPUT CARD> H           1.0   5.3686434428  -1.1475494999   0.0813256552                   
 INPUT CARD> H           1.0  -2.7829131392  -0.1414670425   2.3863477827                   
 INPUT CARD> H           1.0  -1.9687400286  -0.3852575019  -1.8289982383                   
 INPUT CARD> H           1.0  -5.2185791143   0.0746393042   1.9127862982                   
 INPUT CARD> H           1.0  -4.4183079849  -0.1624611517  -2.3104283572                   
 INPUT CARD> CL         17.0  -6.7232617884   0.1273929920  -0.5704218160                   
 INPUT CARD> H           1.0   2.3749788352   3.6539161317   0.4468981761                   
 INPUT CARD> $END                                                                           
 INPUT CARD>                                                                                
 INPUT CARD>                                                                                
 INPUT CARD>                                                                                
  100000000 WORDS OF MEMORY AVAILABLE

     BASIS OPTIONS
     -------------
     GBASIS=N31          IGAUSS=       6      POLAR=POPN31  
     NDFUNC=       0     NFFUNC=       0     DIFFSP=       T
     NPFUNC=       1      DIFFS=       F     BASNAM=        


     RUN TITLE
     ---------
  Title                                                                          

 THE POINT GROUP OF THE MOLECULE IS C1      
 THE ORDER OF THE PRINCIPAL AXIS IS     0

 ATOM      ATOMIC                      COORDINATES (BOHR)
           CHARGE         X                   Y                   Z
 O           8.0     5.2668363555        5.2665552096        0.5582342578
 O           8.0     1.1638675598        4.0275230231        0.9972092911
 N           7.0     0.1901099145       -1.0727434717       -0.5845104765
 C           6.0     2.8087208890       -1.2662486935       -0.1899298988
 C           6.0     4.4133089659        0.8443898277        0.2740888468
 C           6.0    -4.1855829609       -0.5411214282        0.5768172640
 C           6.0     3.9151352166       -3.6711710422       -0.5342527665
 C           6.0     7.0581764597        0.4682615216        0.3645610027
 C           6.0    -1.4804438494       -0.7676502019        1.1504972566
 C           6.0     6.5242731717       -4.0036944414       -0.3818664491
 C           6.0     8.1159110982       -1.9229359102        0.0607146310
 C           6.0    -5.9261771647       -0.2887469216        2.5714804551
 C           6.0    -5.0750173314       -0.5468447087       -1.9338455840
 C           6.0    -8.5184619758       -0.0546652318        2.0860923747
 C           6.0    -7.6545279934       -0.3119404491       -2.4431962078
 C           6.0    -9.3348468556       -0.0706630672       -0.4184513639
 C           6.0     3.3979646324        3.4126772135        0.6346918149
 H           1.0     2.6788561673       -5.2487646627       -0.9466139055
 H           1.0     8.2511746325        2.0948643053        0.6855991750
 H           1.0    -0.9617641825       -0.6533085829        3.1487940774
 H           1.0     7.3212865350       -5.8742803115       -0.6313192507
 H           1.0    10.1452650327       -2.1685541122        0.1536832041
 H           1.0    -5.2589432807       -0.2673339466        4.5095434207
 H           1.0    -3.7203791951       -0.7280311133       -3.4563055024
 H           1.0    -9.8616845713        0.1410478329        3.6146419767
 H           1.0    -8.3493914208       -0.3070070604       -4.3660765094
 CL         17.0   -12.7051225238        0.2407378476       -1.0779409297
 H           1.0     4.4880592252        6.9049002710        0.8445150972

          INTERNUCLEAR DISTANCES (ANGS.)
          ------------------------------

                1 O          2 O          3 N          4 C          5 C     

   1 O       0.0000000    2.2799037 *  4.3400834    3.7147944    2.3880377 *
   2 O       2.2799037 *  0.0000000    2.8723534 *  2.9999665 *  2.4373257 *
   3 N       4.3400834    2.8723534 *  0.0000000    1.4050888 *  2.4960121 *
   4 C       3.7147944    2.9999665 *  1.4050888 *  0.0000000    1.4243434 *
   5 C       2.3880377 *  2.4373257 *  2.4960121 *  1.4243434 *  0.0000000  
   6 C       5.8707126    3.7293243    2.4121425 *  3.7431201    4.6118102  
   7 C       4.8182329    4.4015569    2.4035464 *  1.4126518 *  2.4417894 *
   8 C       2.7122609 *  3.6590402    3.7584913    2.4464854 *  1.4144960 *
   9 C       4.8003173    2.8988852 *  1.2847224 *  2.3925765 *  3.2664893  
  10 C       4.9754613    5.1614792    3.6948989    2.4443050 *  2.8195946 *
  11 C       4.1008176    4.8677373    4.2320110    2.8329685 *  2.4487178 *
  12 C       6.6977639    4.4707571    3.6656325    4.8753092    5.6368427  
  13 C       6.4150606    4.3777899    2.8896586 *  4.2896699    5.2074602  
  14 C       7.8611625    5.5902118    4.8502156    6.1474201    6.9264098  
  15 C       7.6151871    5.5103447    4.2850903    5.6863165    6.5744481  
  16 C       8.2430966    6.0108160    5.0689696    6.4583018    7.3005122  
  17 C       1.3935952 *  1.2411033 *  2.9886001 *  2.5334030 *  1.4738378 *
  18 H       5.7855837    5.0790859    2.5796579 *  2.1462603 *  3.4141150  
  19 H       2.3055446 *  3.8908814    4.6322715    3.4165322    2.1470672 *
  20 H       4.7493843    2.9490803 *  2.0793570 *  2.6847249 *  3.3215492  
  21 H       6.0278380    6.2301857    4.5494051    3.4209592    3.9036149  
  22 H       4.7106757    5.7912499    5.3142372    3.9158081    3.4273225  
  23 H       6.6311803    4.4913024    3.9702491    4.9689176    5.6184438  
  24 H       6.0986763    4.3089768    2.5738889 *  3.8737812    4.8078085  
  25 H       8.6060003    6.3395002    5.8003413    7.0401345    7.7670066  
  26 H       8.2101827    6.2176656    4.9587516    6.3250256    7.2120350  
  27 CL      9.9131046    7.6866502    6.8641393    8.2615892    9.0925076  
  28 H       0.9718186 *  2.3279508 *  4.8545281    4.4481725    3.2215014  

                6 C          7 C          8 C          9 C         10 C     

   1 O       5.8707126    4.8182329    2.7122609 *  4.8003173    4.9754613  
   2 O       3.7293243    4.4015569    3.6590402    2.8988852 *  5.1614792  
   3 N       2.4121425 *  2.4035464 *  3.7584913    1.2847224 *  3.6948989  
   4 C       3.7431201    1.4126518 *  2.4464854 *  2.3925765 *  2.4443050 *
   5 C       4.6118102    2.4417894 *  1.4144960 *  3.2664893    2.8195946 *
   6 C       0.0000000    4.6330465    5.9749251    1.4682358 *  5.9778178  
   7 C       4.6330465    0.0000000    2.7912019 *  3.3627159    1.3941982 *
   8 C       5.9749251    2.7912019 *  0.0000000    4.5844348    2.4157737 *
   9 C       1.4682358 *  3.3627159    4.5844348    0.0000000    4.6403630  
  10 C       5.9778178    1.3941982 *  2.4157737 *  4.6403630    0.0000000  
  11 C       6.5563017    2.4282738 *  1.3929480 *  5.1472475    1.4059340 *
  12 C       1.4072576 *  5.7468211    6.9810693    2.4827994 *  7.0509132  
  13 C       1.4094956 *  5.0906499    6.5568351    2.5091532 *  6.4573067  
  14 C       2.4415892 *  6.9911437    8.2976071    3.7760193    8.3329798  
  15 C       2.4368934 *  6.4547826    7.9368806    3.7880228    7.8296156  
  16 C       2.7864491 *  7.2661084    8.6893863    4.2545008    8.6465322  
  17 C       4.5258135    3.8091501    2.4899297 *  3.4106310    4.2928561  
  18 H       4.4778300    1.0828406 *  3.8735635    3.4203865    2.1596897 *
  19 H       6.7276973    3.8719158    1.0808886 *  5.3735473    3.4013417  
  20 H       2.1831790 *  3.6068185    4.5314793    1.0941682 *  4.7251530  
  21 H       6.7417726    2.1472458 *  3.4003022    5.4667621    1.0840449 *
  22 H       7.6355855    3.4108596    2.1513110 *  6.2189760    2.1667941 *
  23 H       2.1620888 *  5.8255110    6.8881199    2.6884374 *  7.0348830  
  24 H       2.1506631 *  4.5981071    6.0845581    2.7107882 *  5.9195766  
  25 H       3.4258603    7.8765168    9.1189354    4.6478195    9.1907985  
  26 H       3.4222801    7.0286829    8.5388471    4.6683877    8.3798242  
  27 CL      4.6111985    9.0399769   10.4868000    6.0792355   10.4272008  
  28 H       6.0508583    5.6521116    3.6763988    5.1464952    5.9080363  

               11 C         12 C         13 C         14 C         15 C     

   1 O       4.1008176    6.6977639    6.4150606    7.8611625    7.6151871  
   2 O       4.8677373    4.4707571    4.3777899    5.5902118    5.5103447  
   3 N       4.2320110    3.6656325    2.8896586 *  4.8502156    4.2850903  
   4 C       2.8329685 *  4.8753092    4.2896699    6.1474201    5.6863165  
   5 C       2.4487178 *  5.6368427    5.2074602    6.9264098    6.5744481  
   6 C       6.5563017    1.4072576 *  1.4094956 *  2.4415892 *  2.4368934 *
   7 C       2.4282738 *  5.7468211    5.0906499    6.9911437    6.4547826  
   8 C       1.3929480 *  6.9810693    6.5568351    8.2976071    7.9368806  
   9 C       5.1472475    2.4827994 *  2.5091532 *  3.7760193    3.7880228  
  10 C       1.4059340 *  7.0509132    6.4573067    8.3329798    7.8296156  
  11 C       0.0000000    7.5979748    7.0971427    8.9224833    8.4927859  
  12 C       7.5979748    0.0000000    2.4301309 *  1.4011047 *  2.8068709 *
  13 C       7.0971427    2.4301309 *  0.0000000    2.8130862 *  1.3969170 *
  14 C       8.9224833    1.4011047 *  2.8130862 *  0.0000000    2.4438038 *
  15 C       8.4927859    2.8068709 *  1.3969170 *  2.4438038 *  0.0000000  
  16 C       9.2898791    2.4021548 *  2.4058260 *  1.3940059 *  1.3981978 *
  17 C       3.7812014    5.4067133    5.1323816    6.6121804    6.3831975  
  18 H       3.4146252    5.5758652    4.8269909    6.7260887    6.1117297  
  19 H       2.1528798 *  7.6728047    7.3215552    8.9773571    8.6722682  
  20 H       5.1183335    2.6517849 *  3.4604879    4.0505879    4.6187194  
  21 H       2.1640349 *  7.7943947    7.1731629    9.0449052    8.5080371  
  22 H       1.0828431 *  8.6576806    8.1747988    9.9920301    9.5695298  
  23 H       7.5102133    1.0847162 *  3.4142890    2.1523145 *  3.8915727  
  24 H       6.5646778    3.4045768    1.0826503 *  3.8955927    2.1610298 *
  25 H       9.7587570    2.1664705 *  3.8947982    1.0817779 *  3.4202270  
  26 H       9.0629061    3.8887146    2.1621793 *  3.4181223    1.0819479 *
  27 CL     11.0937244    4.0836828    4.0843217    2.7814040 *  2.7839894 *
  28 H       5.0675828    6.7599631    6.5818296    7.8337299    7.6746075  

               16 C         17 C         18 H         19 H         20 H     

   1 O       8.2430966    1.3935952 *  5.7855837    2.3055446 *  4.7493843  
   2 O       6.0108160    1.2411033 *  5.0790859    3.8908814    2.9490803 *
   3 N       5.0689696    2.9886001 *  2.5796579 *  4.6322715    2.0793570 *
   4 C       6.4583018    2.5334030 *  2.1462603 *  3.4165322    2.6847249 *
   5 C       7.3005122    1.4738378 *  3.4141150    2.1470672 *  3.3215492  
   6 C       2.7864491 *  4.5258135    4.4778300    6.7276973    2.1831790 *
   7 C       7.2661084    3.8091501    1.0828406 *  3.8719158    3.6068185  
   8 C       8.6893863    2.4899297 *  3.8735635    1.0808886 *  4.5314793  
   9 C       4.2545008    3.4106310    3.4203865    5.3735473    1.0941682 *
  10 C       8.6465322    4.2928561    2.1596897 *  3.4013417    4.7251530  
  11 C       9.2898791    3.7812014    3.4146252    2.1528798 *  5.1183335  
  12 C       2.4021548 *  5.4067133    5.5758652    7.6728047    2.6517849 *
  13 C       2.4058260 *  5.1323816    4.8269909    7.3215552    3.4604879  
  14 C       1.3940059 *  6.6121804    6.7260887    8.9773571    4.0505879  
  15 C       1.3981978 *  6.3831975    6.1117297    8.6722682    4.6187194  
  16 C       0.0000000    7.0076987    6.9283986    9.3945967    4.8260625  
  17 C       7.0076987    0.0000000    4.6747118    2.6613391 *  3.4237476  
  18 H       6.9283986    4.6747118    0.0000000    4.9540640    3.7844388  
  19 H       9.3945967    2.6613391 *  4.9540640    0.0000000    5.2518816  
  20 H       4.8260625    3.4237476    3.7844388    5.2518816    0.0000000  
  21 H       9.3344537    5.3768892    2.4844768 *  4.3025147    5.5540104  
  22 H      10.3724578    4.6407238    4.3135448    2.4847253 *  6.1401154  
  23 H       3.3857752    5.3835564    5.7384134    7.5345218    2.3939854 *
  24 H       3.3959386    4.8659148    4.3536142    6.8679423    3.7880694  
  25 H       2.1552670 *  7.3971704    7.6157467    9.7643220    4.7347792  
  26 H       2.1567284 *  7.0371444    6.6460942    9.2699289    5.5795020  
  27 CL      1.8247529 *  8.7322861    8.6438910   11.1719613    6.6215083  
  28 H       8.2205995    1.9391262 *  6.5710292    3.2328675    5.0794621  

               21 H         22 H         23 H         24 H         25 H     

   1 O       6.0278380    4.7106757    6.6311803    6.0986763    8.6060003  
   2 O       6.2301857    5.7912499    4.4913024    4.3089768    6.3395002  
   3 N       4.5494051    5.3142372    3.9702491    2.5738889 *  5.8003413  
   4 C       3.4209592    3.9158081    4.9689176    3.8737812    7.0401345  
   5 C       3.9036149    3.4273225    5.6184438    4.8078085    7.7670066  
   6 C       6.7417726    7.6355855    2.1620888 *  2.1506631 *  3.4258603  
   7 C       2.1472458 *  3.4108596    5.8255110    4.5981071    7.8765168  
   8 C       3.4003022    2.1513110 *  6.8881199    6.0845581    9.1189354  
   9 C       5.4667621    6.2189760    2.6884374 *  2.7107882 *  4.6478195  
  10 C       1.0840449 *  2.1667941 *  7.0348830    5.9195766    9.1907985  
  11 C       2.1640349 *  1.0828431 *  7.5102133    6.5646778    9.7587570  
  12 C       7.7943947    8.6576806    1.0847162 *  3.4045768    2.1664705 *
  13 C       7.1731629    8.1747988    3.4142890    1.0826503 *  3.8947982  
  14 C       9.0449052    9.9920301    2.1523145 *  3.8955927    1.0817779 *
  15 C       8.5080371    9.5695298    3.8915727    2.1610298 *  3.4202270  
  16 C       9.3344537   10.3724578    3.3857752    3.3959386    2.1552670 *
  17 C       5.3768892    4.6407238    5.3835564    4.8659148    7.3971704  
  18 H       2.4844768 *  4.3135448    5.7384134    4.3536142    7.6157467  
  19 H       4.3025147    2.4847253 *  7.5345218    6.8679423    9.7643220  
  20 H       5.5540104    6.1401154    2.3939854 *  3.7880694    4.7347792  
  21 H       0.0000000    2.5002429 *  7.7795985    6.6175262    9.8924568  
  22 H       2.5002429 *  0.0000000    8.5307212    7.6202115   10.8137540  
  23 H       7.7795985    8.5307212    0.0000000    4.3001690    2.4906688 *
  24 H       6.6175262    7.6202115    4.3001690    0.0000000    4.9773397  
  25 H       9.8924568   10.8137540    2.4906688 *  4.9773397    0.0000000  
  26 H       9.0195323   10.1230087    4.9733955    2.5063512 *  4.3049033  
  27 CL     11.0830737   12.1763880    4.9336720    4.9449269    2.9039930 *
  28 H       6.9705464    5.6700744    6.6910573    6.3531505    8.5218644  

               26 H         27 CL        28 H     

   1 O       8.2101827    9.9131046    0.9718186 *
   2 O       6.2176656    7.6866502    2.3279508 *
   3 N       4.9587516    6.8641393    4.8545281  
   4 C       6.3250256    8.2615892    4.4481725  
   5 C       7.2120350    9.0925076    3.2215014  
   6 C       3.4222801    4.6111985    6.0508583  
   7 C       7.0286829    9.0399769    5.6521116  
   8 C       8.5388471   10.4868000    3.6763988  
   9 C       4.6683877    6.0792355    5.1464952  
  10 C       8.3798242   10.4272008    5.9080363  
  11 C       9.0629061   11.0937244    5.0675828  
  12 C       3.8887146    4.0836828    6.7599631  
  13 C       2.1621793 *  4.0843217    6.5818296  
  14 C       3.4181223    2.7814040 *  7.8337299  
  15 C       1.0819479 *  2.7839894 *  7.6746075  
  16 C       2.1567284 *  1.8247529 *  8.2205995  
  17 C       7.0371444    8.7322861    1.9391262 *
  18 H       6.6460942    8.6438910    6.5710292  
  19 H       9.2699289   11.1719613    3.2328675  
  20 H       5.5795020    6.6215083    5.0794621  
  21 H       9.0195323   11.0830737    6.9705464  
  22 H      10.1230087   12.1763880    5.6700744  
  23 H       4.9733955    4.9336720    6.6910573  
  24 H       2.5063512 *  4.9449269    6.3531505  
  25 H       4.3049033    2.9039930 *  8.5218644  
  26 H       0.0000000    2.9024903 *  8.2653694  
  27 CL      2.9024903 *  0.0000000    9.8106721  
  28 H       8.2653694    9.8106721    0.0000000  

  * ... LESS THAN  3.000


     ATOMIC BASIS SET
     ----------------
 THE CONTRACTED PRIMITIVE FUNCTIONS HAVE BEEN UNNORMALIZED
 THE CONTRACTED BASIS FUNCTIONS ARE NOW NORMALIZED TO UNITY

  SHELL TYPE  PRIMITIVE        EXPONENT          CONTRACTION COEFFICIENT(S)

 O         

      1   S       1          5484.6716600    0.001831074430
      1   S       2           825.2349460    0.013950172200
      1   S       3           188.0469580    0.068445078098
      1   S       4            52.9645000    0.232714335992
      1   S       5            16.8975704    0.470192897984
      1   S       6             5.7996353    0.358520852987

      2   L       7            15.5396162   -0.110777549525    0.070874268231
      2   L       8             3.5999336   -0.148026262701    0.339752839147
      2   L       9             1.0137618    1.130767015354    0.727158577316

      3   L      10             0.2700058    1.000000000000    1.000000000000

      4   L      11             0.0845000    1.000000000000    1.000000000000

 O         

      5   S      12          5484.6716600    0.001831074430
      5   S      13           825.2349460    0.013950172200
      5   S      14           188.0469580    0.068445078098
      5   S      15            52.9645000    0.232714335992
      5   S      16            16.8975704    0.470192897984
      5   S      17             5.7996353    0.358520852987

      6   L      18            15.5396162   -0.110777549525    0.070874268231
      6   L      19             3.5999336   -0.148026262701    0.339752839147
      6   L      20             1.0137618    1.130767015354    0.727158577316

      7   L      21             0.2700058    1.000000000000    1.000000000000

      8   L      22             0.0845000    1.000000000000    1.000000000000

 N         

      9   S      23          4173.5114600    0.001834772160
      9   S      24           627.4579110    0.013994627002
      9   S      25           142.9020930    0.068586551812
      9   S      26            40.2343293    0.232240873040
      9   S      27            12.8202129    0.469069948082
      9   S      28             4.3904370    0.360455199063

     10   L      29            11.6263619   -0.114961181702    0.067579743878
     10   L      30             2.7162798   -0.169117478561    0.323907295893
     10   L      31             0.7722184    1.145851947027    0.740895139755

     11   L      32             0.2120315    1.000000000000    1.000000000000

     12   L      33             0.0639000    1.000000000000    1.000000000000

 C         

     13   S      34          3047.5248800    0.001834737132
     13   S      35           457.3695180    0.014037322813
     13   S      36           103.9486850    0.068842622264
     13   S      37            29.2101553    0.232184443216
     13   S      38             9.2866630    0.467941348435
     13   S      39             3.1639270    0.362311985337

     14   L      40             7.8682723   -0.119332419775    0.068999066591
     14   L      41             1.8812885   -0.160854151696    0.316423960957
     14   L      42             0.5442493    1.143456437840    0.744308290898

     15   L      43             0.1687145    1.000000000000    1.000000000000

     16   L      44             0.0438000    1.000000000000    1.000000000000

 C         

     17   S      45          3047.5248800    0.001834737132
     17   S      46           457.3695180    0.014037322813
     17   S      47           103.9486850    0.068842622264
     17   S      48            29.2101553    0.232184443216
     17   S      49             9.2866630    0.467941348435
     17   S      50             3.1639270    0.362311985337

     18   L      51             7.8682723   -0.119332419775    0.068999066591
     18   L      52             1.8812885   -0.160854151696    0.316423960957
     18   L      53             0.5442493    1.143456437840    0.744308290898

     19   L      54             0.1687145    1.000000000000    1.000000000000

     20   L      55             0.0438000    1.000000000000    1.000000000000

 C         

     21   S      56          3047.5248800    0.001834737132
     21   S      57           457.3695180    0.014037322813
     21   S      58           103.9486850    0.068842622264
     21   S      59            29.2101553    0.232184443216
     21   S      60             9.2866630    0.467941348435
     21   S      61             3.1639270    0.362311985337

     22   L      62             7.8682723   -0.119332419775    0.068999066591
     22   L      63             1.8812885   -0.160854151696    0.316423960957
     22   L      64             0.5442493    1.143456437840    0.744308290898

     23   L      65             0.1687145    1.000000000000    1.000000000000

     24   L      66             0.0438000    1.000000000000    1.000000000000

 C         

     25   S      67          3047.5248800    0.001834737132
     25   S      68           457.3695180    0.014037322813
     25   S      69           103.9486850    0.068842622264
     25   S      70            29.2101553    0.232184443216
     25   S      71             9.2866630    0.467941348435
     25   S      72             3.1639270    0.362311985337

     26   L      73             7.8682723   -0.119332419775    0.068999066591
     26   L      74             1.8812885   -0.160854151696    0.316423960957
     26   L      75             0.5442493    1.143456437840    0.744308290898

     27   L      76             0.1687145    1.000000000000    1.000000000000

     28   L      77             0.0438000    1.000000000000    1.000000000000

 C         

     29   S      78          3047.5248800    0.001834737132
     29   S      79           457.3695180    0.014037322813
     29   S      80           103.9486850    0.068842622264
     29   S      81            29.2101553    0.232184443216
     29   S      82             9.2866630    0.467941348435
     29   S      83             3.1639270    0.362311985337

     30   L      84             7.8682723   -0.119332419775    0.068999066591
     30   L      85             1.8812885   -0.160854151696    0.316423960957
     30   L      86             0.5442493    1.143456437840    0.744308290898

     31   L      87             0.1687145    1.000000000000    1.000000000000

     32   L      88             0.0438000    1.000000000000    1.000000000000

 C         

     33   S      89          3047.5248800    0.001834737132
     33   S      90           457.3695180    0.014037322813
     33   S      91           103.9486850    0.068842622264
     33   S      92            29.2101553    0.232184443216
     33   S      93             9.2866630    0.467941348435
     33   S      94             3.1639270    0.362311985337

     34   L      95             7.8682723   -0.119332419775    0.068999066591
     34   L      96             1.8812885   -0.160854151696    0.316423960957
     34   L      97             0.5442493    1.143456437840    0.744308290898

     35   L      98             0.1687145    1.000000000000    1.000000000000

     36   L      99             0.0438000    1.000000000000    1.000000000000

 C         

     37   S     100          3047.5248800    0.001834737132
     37   S     101           457.3695180    0.014037322813
     37   S     102           103.9486850    0.068842622264
     37   S     103            29.2101553    0.232184443216
     37   S     104             9.2866630    0.467941348435
     37   S     105             3.1639270    0.362311985337

     38   L     106             7.8682723   -0.119332419775    0.068999066591
     38   L     107             1.8812885   -0.160854151696    0.316423960957
     38   L     108             0.5442493    1.143456437840    0.744308290898

     39   L     109             0.1687145    1.000000000000    1.000000000000

     40   L     110             0.0438000    1.000000000000    1.000000000000

 C         

     41   S     111          3047.5248800    0.001834737132
     41   S     112           457.3695180    0.014037322813
     41   S     113           103.9486850    0.068842622264
     41   S     114            29.2101553    0.232184443216
     41   S     115             9.2866630    0.467941348435
     41   S     116             3.1639270    0.362311985337

     42   L     117             7.8682723   -0.119332419775    0.068999066591
     42   L     118             1.8812885   -0.160854151696    0.316423960957
     42   L     119             0.5442493    1.143456437840    0.744308290898

     43   L     120             0.1687145    1.000000000000    1.000000000000

     44   L     121             0.0438000    1.000000000000    1.000000000000

 C         

     45   S     122          3047.5248800    0.001834737132
     45   S     123           457.3695180    0.014037322813
     45   S     124           103.9486850    0.068842622264
     45   S     125            29.2101553    0.232184443216
     45   S     126             9.2866630    0.467941348435
     45   S     127             3.1639270    0.362311985337

     46   L     128             7.8682723   -0.119332419775    0.068999066591
     46   L     129             1.8812885   -0.160854151696    0.316423960957
     46   L     130             0.5442493    1.143456437840    0.744308290898

     47   L     131             0.1687145    1.000000000000    1.000000000000

     48   L     132             0.0438000    1.000000000000    1.000000000000

 C         

     49   S     133          3047.5248800    0.001834737132
     49   S     134           457.3695180    0.014037322813
     49   S     135           103.9486850    0.068842622264
     49   S     136            29.2101553    0.232184443216
     49   S     137             9.2866630    0.467941348435
     49   S     138             3.1639270    0.362311985337

     50   L     139             7.8682723   -0.119332419775    0.068999066591
     50   L     140             1.8812885   -0.160854151696    0.316423960957
     50   L     141             0.5442493    1.143456437840    0.744308290898

     51   L     142             0.1687145    1.000000000000    1.000000000000

     52   L     143             0.0438000    1.000000000000    1.000000000000

 C         

     53   S     144          3047.5248800    0.001834737132
     53   S     145           457.3695180    0.014037322813
     53   S     146           103.9486850    0.068842622264
     53   S     147            29.2101553    0.232184443216
     53   S     148             9.2866630    0.467941348435
     53   S     149             3.1639270    0.362311985337

     54   L     150             7.8682723   -0.119332419775    0.068999066591
     54   L     151             1.8812885   -0.160854151696    0.316423960957
     54   L     152             0.5442493    1.143456437840    0.744308290898

     55   L     153             0.1687145    1.000000000000    1.000000000000

     56   L     154             0.0438000    1.000000000000    1.000000000000

 C         

     57   S     155          3047.5248800    0.001834737132
     57   S     156           457.3695180    0.014037322813
     57   S     157           103.9486850    0.068842622264
     57   S     158            29.2101553    0.232184443216
     57   S     159             9.2866630    0.467941348435
     57   S     160             3.1639270    0.362311985337

     58   L     161             7.8682723   -0.119332419775    0.068999066591
     58   L     162             1.8812885   -0.160854151696    0.316423960957
     58   L     163             0.5442493    1.143456437840    0.744308290898

     59   L     164             0.1687145    1.000000000000    1.000000000000

     60   L     165             0.0438000    1.000000000000    1.000000000000

 C         

     61   S     166          3047.5248800    0.001834737132
     61   S     167           457.3695180    0.014037322813
     61   S     168           103.9486850    0.068842622264
     61   S     169            29.2101553    0.232184443216
     61   S     170             9.2866630    0.467941348435
     61   S     171             3.1639270    0.362311985337

     62   L     172             7.8682723   -0.119332419775    0.068999066591
     62   L     173             1.8812885   -0.160854151696    0.316423960957
     62   L     174             0.5442493    1.143456437840    0.744308290898

     63   L     175             0.1687145    1.000000000000    1.000000000000

     64   L     176             0.0438000    1.000000000000    1.000000000000

 C         

     65   S     177          3047.5248800    0.001834737132
     65   S     178           457.3695180    0.014037322813
     65   S     179           103.9486850    0.068842622264
     65   S     180            29.2101553    0.232184443216
     65   S     181             9.2866630    0.467941348435
     65   S     182             3.1639270    0.362311985337

     66   L     183             7.8682723   -0.119332419775    0.068999066591
     66   L     184             1.8812885   -0.160854151696    0.316423960957
     66   L     185             0.5442493    1.143456437840    0.744308290898

     67   L     186             0.1687145    1.000000000000    1.000000000000

     68   L     187             0.0438000    1.000000000000    1.000000000000

 H         

     69   S     188            18.7311370    0.033494604338
     69   S     189             2.8253944    0.234726953484
     69   S     190             0.6401217    0.813757326146

     70   S     191             0.1612778    1.000000000000

     71   P     192             1.1000000    1.000000000000

 H         

     72   S     193            18.7311370    0.033494604338
     72   S     194             2.8253944    0.234726953484
     72   S     195             0.6401217    0.813757326146

     73   S     196             0.1612778    1.000000000000

     74   P     197             1.1000000    1.000000000000

 H         

     75   S     198            18.7311370    0.033494604338
     75   S     199             2.8253944    0.234726953484
     75   S     200             0.6401217    0.813757326146

     76   S     201             0.1612778    1.000000000000

     77   P     202             1.1000000    1.000000000000

 H         

     78   S     203            18.7311370    0.033494604338
     78   S     204             2.8253944    0.234726953484
     78   S     205             0.6401217    0.813757326146

     79   S     206             0.1612778    1.000000000000

     80   P     207             1.1000000    1.000000000000

 H         

     81   S     208            18.7311370    0.033494604338
     81   S     209             2.8253944    0.234726953484
     81   S     210             0.6401217    0.813757326146

     82   S     211             0.1612778    1.000000000000

     83   P     212             1.1000000    1.000000000000

 H         

     84   S     213            18.7311370    0.033494604338
     84   S     214             2.8253944    0.234726953484
     84   S     215             0.6401217    0.813757326146

     85   S     216             0.1612778    1.000000000000

     86   P     217             1.1000000    1.000000000000

 H         

     87   S     218            18.7311370    0.033494604338
     87   S     219             2.8253944    0.234726953484
     87   S     220             0.6401217    0.813757326146

     88   S     221             0.1612778    1.000000000000

     89   P     222             1.1000000    1.000000000000

 H         

     90   S     223            18.7311370    0.033494604338
     90   S     224             2.8253944    0.234726953484
     90   S     225             0.6401217    0.813757326146

     91   S     226             0.1612778    1.000000000000

     92   P     227             1.1000000    1.000000000000

 H         

     93   S     228            18.7311370    0.033494604338
     93   S     229             2.8253944    0.234726953484
     93   S     230             0.6401217    0.813757326146

     94   S     231             0.1612778    1.000000000000

     95   P     232             1.1000000    1.000000000000

 CL        

     96   S     233         25180.1000000    0.001832959848
     96   S     234          3780.3500000    0.014034198835
     96   S     235           860.4740000    0.069097394263
     96   S     236           242.1450000    0.237451980285
     96   S     237            77.3349000    0.483033959896
     96   S     238            26.2470000    0.339855971783

     97   L     239           491.7650000   -0.002297391417    0.003989400879
     97   L     240           116.9840000   -0.030713718938    0.030317706682
     97   L     241            37.4153000   -0.112528069386    0.129880028625
     97   L     242            13.7834000    0.045016327757    0.327951072278
     97   L     243             5.4521500    0.589353363399    0.453527099954
     97   L     244             2.2258800    0.465206286849    0.252154055573

     98   L     245             3.1864900   -0.251831288046   -0.014299314719
     98   L     246             1.1442700    0.061589315012    0.323572333073
     98   L     247             0.4203770    1.060185422549    0.743507765337

     99   L     248             0.1426570    1.000000000000    1.000000000000

    100   L     249             0.0483000    1.000000000000    1.000000000000

 H         

    101   S     250            18.7311370    0.033494604338
    101   S     251             2.8253944    0.234726953484
    101   S     252             0.6401217    0.813757326146

    102   S     253             0.1612778    1.000000000000

    103   P     254             1.1000000    1.000000000000

 TOTAL NUMBER OF BASIS SET SHELLS             =  103
 NUMBER OF CARTESIAN GAUSSIAN BASIS FUNCTIONS =  288
 NOTE: THIS RUN WILL RESTRICT THE MO VARIATION SPACE TO SPHERICAL HARMONICS.
 THE NUMBER OF ORBITALS KEPT IN THE VARIATIONAL SPACE WILL BE PRINTED LATER.
 NUMBER OF ELECTRONS                          =  134
 CHARGE OF MOLECULE                           =    0
 SPIN MULTIPLICITY                            =    1
 NUMBER OF OCCUPIED ORBITALS (ALPHA)          =   67
 NUMBER OF OCCUPIED ORBITALS (BETA )          =   67
 TOTAL NUMBER OF ATOMS                        =   28
 THE NUCLEAR REPULSION ENERGY IS     1242.5314629843

 SELECTED MURRAY-HANDY-LAMING RADIAL GRID

 LEGACY BECKE'S FUZZY CELL METHOD

 SELECTED ORIGINAL BECKE'S PARTITION FUNCTION

     LEBEDEV GRID-BASED DFT OPTIONS
     ------------------------------
     DFTTYP=B3LYP   
     NRAD  =      96     NLEB  =     302
     NRAD0 =      24     NLEB0 =     110
     SWOFF =    5.00E-03 (PURE SCF -> DFT)
     SWITCH=    3.00E-04 (COARSE -> TIGHT GRID)
     THRESH=    0.00E+00 GTHRE=    1.00E+00

 GRIMME'S EMPIRICAL DISPERSION CORRECTION= F

     $CONTRL OPTIONS
     ---------------
 SCFTYP=RHF          RUNTYP=ENERGY       EXETYP=RUN     
 MPLEVL=       0     CITYP =NONE         CCTYP =NONE         VBTYP =NONE    
 DFTTYP=B3LYP        TDDFT =EXCITE  
 MULT  =       1     ICHARG=       0     NZVAR =       0     COORD =UNIQUE  
 PP    =NONE         RELWFN=NONE         LOCAL =NONE         NUMGRD=       F
 ISPHER=       1     NOSYM =       0     MAXIT =     200     UNITS =ANGS    
 PLTORB=       F     MOLPLT=       F     AIMPAC=       F     FRIEND=        
 NPRINT=       7     IREST =       0     GEOM  =INPUT   
 NORMF =       0     NORMP =       0     ITOL  =      20     ICUT  =       9
 INTTYP=BEST         GRDTYP=BEST         QMTTOL= 1.0E-06

     $SYSTEM OPTIONS
     ---------------
  REPLICATED MEMORY=   100000000 WORDS (ON EVERY NODE).
 DISTRIBUTED MEMDDI=           0 MILLION WORDS IN AGGREGATE,
 MEMDDI DISTRIBUTED OVER  16 PROCESSORS IS           0 WORDS/PROCESSOR.
 TOTAL MEMORY REQUESTED ON EACH PROCESSOR=   100000000 WORDS.
 TIMLIM=      525600.00 MINUTES, OR     365.0 DAYS.
 PARALL= T  BALTYP=  DLB     KDIAG=    0  COREFL= F
 MXSEQ2=     300 MXSEQ3=     150  mem10=         0

          ----------------
          PROPERTIES INPUT
          ----------------

     MOMENTS            FIELD           POTENTIAL          DENSITY
 IEMOM =       1   IEFLD =       0   IEPOT =       0   IEDEN =       0
 WHERE =COMASS     WHERE =NUCLEI     WHERE =NUCLEI     WHERE =NUCLEI  
 OUTPUT=BOTH       OUTPUT=BOTH       OUTPUT=BOTH       OUTPUT=BOTH    
 IEMINT=       0   IEFINT=       0                     IEDINT=       0
                                                       MORB  =       0
          EXTRAPOLATION IN EFFECT
          DAMPING IN EFFECT
          DIIS IN EFFECT
 ORBITAL PRINTING OPTION: NPREO=     1   288     2     1

     -------------------------------
     INTEGRAL TRANSFORMATION OPTIONS
     -------------------------------
     NWORD  =            0
     CUTOFF = 1.0E-09     MPTRAN =       0
     DIRTRF =       T     AOINTS =DUP     

          ----------------------
          INTEGRAL INPUT OPTIONS
          ----------------------
 NOPK  =       1 NORDER=       0 SCHWRZ=       T

          ----------------------
          TDDFT INPUT PARAMETERS
          ----------------------
 NSTATE=      10 IROOT =       1 MULT  =       1
 MAXVEC=      50 NTRIAL=       5 CNVTOL=  1.00E-07
 TDPRP =       F TRNSD =       F TAMMD =       F
 TPA   =       F ALPHA =       F BETA  =       F
 PFREQ =    0.00    0.00
   NRAD=      48   NLEB=     110

     ------------------------------------------
     THE POINT GROUP IS C1 , NAXIS= 0, ORDER= 1
     ------------------------------------------

 -- VARIATIONAL SPACE WILL BE RESTRICTED TO PURE SPHERICAL HARMONICS ONLY --
 AFTER EXCLUDING CONTAMINANT COMBINATIONS FROM THE CARTESIAN GAUSSIAN BASIS
 SET, THE NUMBER OF SPHERICAL HARMONICS KEPT IN THE VARIATION SPACE IS  288

     DIMENSIONS OF THE SYMMETRY SUBSPACES ARE
 A   =  288

 ..... DONE SETTING UP THE RUN .....
 CPU     0: STEP CPU TIME=     0.07 TOTAL CPU TIME=          0.1 (      0.0 MIN)
 TOTAL WALL CLOCK TIME=          0.1 SECONDS, CPU UTILIZATION IS    63.64%

          ********************
          1 ELECTRON INTEGRALS
          ********************
 ...... END OF ONE-ELECTRON INTEGRALS ......
 CPU     0: STEP CPU TIME=     0.01 TOTAL CPU TIME=          0.1 (      0.0 MIN)
 TOTAL WALL CLOCK TIME=          0.1 SECONDS, CPU UTILIZATION IS    57.14%

          -------------
          GUESS OPTIONS
          -------------
          GUESS =HUCKEL            NORB  =       0          NORDER=       0
          MIX   =       F          PRTMO =       F          PUNMO =       F
          TOLZ  = 1.0E-08          TOLE  = 1.0E-05
          SYMDEN=       F          PURIFY=       F

 INITIAL GUESS ORBITALS GENERATED BY HUCKEL   ROUTINE.
 HUCKEL GUESS REQUIRES    666012 WORDS.

 STATISTICS FOR GENERATION OF SYMMETRY ORBITAL -Q- MATRIX
 NUMBER OF CARTESIAN ATOMIC ORBITALS=        288
 NUMBER OF SPHERICAL CONTAMINANTS DROPPED=     0
 NUMBER OF LINEARLY DEPENDENT MOS DROPPED=     1
 TOTAL NUMBER OF MOS IN VARIATION SPACE=     287

 ...WARNING (SYMORB.SRC)...
 THE INPUT BASIS SET CONTAINS APPROXIMATE LINEAR DEPENDENCE.
 THE SMALLEST EIGENVALUE OF THE OVERLAP MATRIX IS   9.720341E-07
 THERE ARE    1 EIGENVALUES LESS THAN QMTTOL=  1.00E-06
 EIGENVECTORS BELOW -QMTTOL- ARE DROPPED FROM THE MO SPACE,
 IN ORDER TO ELIMINATE THE APPROXIMATE LINEAR DEPENDENCE.

 THIS WILL MOST LIKELY CHANGE THE ENERGY ON THE ORDER OF TENS OF MICROHARTREES,
 DEPENDING ON THE NUMBER OF ORBITALS REMOVED.  THE VALUE OF QMTTOL CAN BE 
 CHANGED IN $CONTRL: JOBS WITH EIGENVALUES BELOW 1.0E-07 PROBABLY WON'T
 CONVERGE.  EIGENVALUES BETWEEN 1.0E-07 AND 1.0E-06 MAY REQUIRE LOOSENING OF
 THE DENSITY CRITERION (CONV IN $SCF), MORE ACCURATE INTEGRAL EVALUATION
 (ICUT=11 IN $CONTRL), MORE ACCURATE DIRECT SCF FOCK MATRIX
 CONSTRUCTION (FDIFF=.FALSE. IN $SCF), OR CHANGING THE SCF CONVERGER
 (DIIS=.TRUE. IN $SCF).

                    * * * * * WARNING * * * * *
 POSSIBLE LINEAR DEPENDENCE PROBLEMS DETECTED, INPUT QMTTOL= 1.0E-06,
 WITH     6 OVERLAP EIGENVALUES LYING BETWEEN 1.0E-05 AND QMTTOL.
 IF YOU EXPERIENCE SCF CONVERGENCE DIFFICULTIES WITH THE DENSITY ALMOST BUT
 NOT QUITE CONVERGED, YOU MAY NEED TO LOOSEN -QMTTOL- BY A FACTOR 5 TO 10.

 SYMMETRIES FOR INITIAL GUESS ORBITALS FOLLOW.   BOTH SET(S).
    67 ORBITALS ARE OCCUPIED (   22 CORE ORBITALS).
    23=A       24=A       25=A       26=A       27=A       28=A       29=A   
    30=A       31=A       32=A       33=A       34=A       35=A       36=A   
    37=A       38=A       39=A       40=A       41=A       42=A       43=A   
    44=A       45=A       46=A       47=A       48=A       49=A       50=A   
    51=A       52=A       53=A       54=A       55=A       56=A       57=A   
    58=A       59=A       60=A       61=A       62=A       63=A       64=A   
    65=A       66=A       67=A       68=A       69=A       70=A       71=A   
    72=A       73=A       74=A       75=A       76=A       77=A   
 ...... END OF INITIAL ORBITAL SELECTION ......
 CPU     0: STEP CPU TIME=     0.11 TOTAL CPU TIME=          0.2 (      0.0 MIN)
 TOTAL WALL CLOCK TIME=          0.3 SECONDS, CPU UTILIZATION IS    63.33%

                    ----------------------
                    AO INTEGRAL TECHNOLOGY
                    ----------------------
     S,P,L SHELL ROTATED AXIS INTEGRALS, REPROGRAMMED BY
        KAZUYA ISHIMURA (IMS) AND JOSE SIERRA (SYNSTAR).
     S,P,D,L SHELL ROTATED AXIS INTEGRALS PROGRAMMED BY
        KAZUYA ISHIMURA (INSTITUTE FOR MOLECULAR SCIENCE).
     S,P,D,F,G SHELL TO TOTAL QUARTET ANGULAR MOMENTUM SUM 5,
        ERIC PROGRAM BY GRAHAM FLETCHER (ELORET AND NASA ADVANCED
        SUPERCOMPUTING DIVISION, AMES RESEARCH CENTER).
     S,P,D,F,G,L SHELL GENERAL RYS QUADRATURE PROGRAMMED BY
        MICHEL DUPUIS (PACIFIC NORTHWEST NATIONAL LABORATORY).

          --------------------
          2 ELECTRON INTEGRALS
          --------------------

 DIRECT SCF METHOD SKIPS INTEGRAL STORAGE ON DISK.
 DIRECT TRANSFORMATION SKIPS AO INTEGRAL STORAGE ON DISK.
  ...... END OF TWO-ELECTRON INTEGRALS .....
 CPU     0: STEP CPU TIME=     0.01 TOTAL CPU TIME=          0.2 (      0.0 MIN)
 TOTAL WALL CLOCK TIME=          0.3 SECONDS, CPU UTILIZATION IS    64.52%

          --------------------------
             R-B3LYP SCF CALCULATION
          --------------------------

     NUCLEAR ENERGY =      1242.5314629843
     MAXIT =  200     NPUNCH=    2
     EXTRAP=T  DAMP=T  SHIFT=F  RSTRCT=F  DIIS=T  DEM=F  SOSCF=F
         DENSITY MATRIX CONVERGENCE THRESHOLD=  2.00E-06
     COARSE -> FINE DFT GRID SWITCH THRESHOLD=  3.00E-04 (SWITCH IN $DFT)
                   HF -> DFT SWITCH THRESHOLD=  5.00E-03 (SWOFF IN $DFT)
     MEMORY REQUIRED FOR RHF ITERS=   1599251 WORDS.

 DIRECT SCF CALCULATION, SCHWRZ=T   FDIFF=T,  DIRTHR=  0.00E+00 NITDIR=10
 SCHWARZ INEQUALITY OVERHEAD:     36819 INTEGRALS, T=        0.00

 DFT CODE IS SWITCHING FROM THE FINE GRID NRAD= 96,  NLEB=  302
                      TO THE COARSE GRID NRAD0= 24, NLEB0=  110

     EXCHANGE FUNCTIONAL   =B88&HFX   
     CORRELATION FUNCTIONAL=LYP88&VWN5
     DFT THRESHOLD         =.493E-08
     GRID CHANGE THRESHOLD =.300E-03
 FOR AN EULER-MACLAURIN QUADRATURE USING  96 RADIAL POINTS:
 SMALLEST GAUSSIAN PRIMITIVE EXPONENT=        0.0438000000 OF TYPE -P-
 ON ATOM NUMBER   4 HAS RADIAL NORMALIZATION=  1.000000
  LARGEST GAUSSIAN PRIMITIVE EXPONENT=    25180.1000000000 OF TYPE -S-
 ON ATOM NUMBER  27 HAS RADIAL NORMALIZATION=  1.000000
 DFT IS SWITCHED OFF, PERFORMING PURE SCF UNTIL SWOFF THRESHOLD IS REACHED.

                                                                                                                   NONZERO     BLOCKS
 ITER EX DEM     TOTAL ENERGY        E CHANGE  DENSITY CHANGE    DIIS ERROR      VIR. SHIFT       DAMPING        INTEGRALS    SKIPPED
          * * *   INITIATING DIIS PROCEDURE   * * *
   1  0  0    -1197.5444020013 -1197.5444020013  15.227509688   0.452532092     0.000000000     1.000000000      469843800    7787155
   2  1  0    -1199.2145446862    -1.6701426849   5.744161300   0.057229312     0.000000000     1.000000000      469864963    7810987
   3  2  0    -1199.3128156676    -0.0982709814   1.774030686   0.060300645     0.000000000     1.000000000      469034875    8058190
   4  3  0    -1199.3825853896    -0.0697697219   0.437848391   0.006266340     0.000000000     1.000000000      467431008    8260510
   5  4  0    -1199.3856771542    -0.0030917647   0.180558944   0.002232730     0.000000000     1.000000000      464176743    8460034
   6  5  0    -1199.3860407097    -0.0003635555   0.069661558   0.001090883     0.000000000     1.000000000      459553378    8652979
   7  6  0    -1199.3860898589    -0.0000491492   0.033068991   0.000405598     0.000000000     1.000000000      449751626    8941924
   8  7  0    -1199.3861045898    -0.0000147309   0.009443617   0.000210488     0.000000000     1.000000000      444517189    9071641
   9  8  0    -1199.3861065689    -0.0000019791   0.009152425   0.000091613     0.000000000     1.000000000      431219793    9356749
  10  9  0    -1199.3861070310    -0.0000004621   0.002312634   0.000029416     0.000000000     1.000000000      421722188    9547074
 CONVERGED TO SWOFF, SO DFT CALCULATION IS NOW SWITCHED ON.
          * * *   INITIATING DIIS PROCEDURE   * * *
  11 10  0    -1204.1738715059    -4.7877644749   9.656387602   0.053079402      469910036    7793113
  12 11  0    -1204.2364634064    -0.0625919005   2.074384326   0.019410777      469451041    7956747
  13 12  0    -1204.2322358909     0.0042275155   0.575035655   0.030087203      467807165    8225098
  14 13  0    -1204.2510170041    -0.0187811131   0.203309595   0.009048194      466397960    8348177
  15 14  0    -1204.2531261294    -0.0021091254   0.068141578   0.002190491      461730158    8584096
  16 15  0    -1204.2532462892    -0.0001201598   0.011900550   0.000389701      451057827    8918278
  17 16  0    -1204.2532501762    -0.0000038870   0.004564312   0.000187613      439626440    9159432
  18 17  0    -1204.2532509735    -0.0000007973   0.001716208   0.000073181      425888800    9457584
  19 18  0    -1204.2532510586    -0.0000000852   0.000453237   0.000019010      410478491    9726141
  20 19  0    -1204.2532510708    -0.0000000122   0.000243617   0.000006475      388607857   10077080
 DFT CODE IS SWITCHING BACK TO THE FINE GRID
          * * *   INITIATING DIIS PROCEDURE   * * *
  21 20  0    -1204.2542819560    -0.0010308852   1.942340046   0.000811515      469962867    7788216
  22 21  0    -1204.2543262302    -0.0000442742   0.038787422   0.000416527      461875419    8483065
  23 22  0    -1204.2543212684     0.0000049618   0.017332560   0.000749554      442673683    9118663
  24 23  0    -1204.2543292766    -0.0000080082   0.001749980   0.000110180      431691367    9359968
  25 24  0    -1204.2543296440    -0.0000003674   0.001110872   0.000032337      417180934    9620267
  26 25  0    -1204.2543296693    -0.0000000253   0.000170574   0.000013735      400735066    9889292
  27 26  0    -1204.2543296732    -0.0000000039   0.000065062   0.000002697      372184795   10320025
  28 27  0    -1204.2543296736    -0.0000000005   0.000040496   0.000001499      355563288   10554556
  29 28  0    -1204.2543296729     0.0000000007   0.000020310   0.000000606      337752516   10804026
  30 29  0    -1204.2543296734    -0.0000000005   0.000057601   0.000000336      315923692   11103868
  31 30  0    -1204.2543296740    -0.0000000007   0.000038344   0.000000069      305285148   11249759
  32 31  0    -1204.2543296735     0.0000000005   0.000040756   0.000000023      297331914   11354790
  33 32  0    -1204.2543296716     0.0000000019   0.000012555   0.000000017      295983621   11375429
  34 33  0    -1204.2543296703     0.0000000013   0.000003274   0.000000030      283179418   11532392
  35 34  0    -1204.2543296754    -0.0000000051   0.000001258   0.000000040      247710418   11970449

          -----------------
          DENSITY CONVERGED
          -----------------
     TIME TO FORM FOCK OPERATORS=      63.0 SECONDS (       1.8 SEC/ITER)
     FOCK TIME ON FIRST ITERATION=       1.2, LAST ITERATION=       2.3
     TIME TO SOLVE SCF EQUATIONS=       1.4 SECONDS (       0.0 SEC/ITER)

 FINAL R-B3LYP ENERGY IS    -1204.2543296754 AFTER  35 ITERATIONS
 DFT EXCHANGE + CORRELATION ENERGY =      -106.1223953547
 TOTAL ELECTRON NUMBER             =       133.9995736148

          ------------
          EIGENVECTORS
          ------------

                      1          2          3          4          5
                 -101.5394   -19.2041   -19.1574   -14.3565   -10.3438
                     A          A          A          A          A   
    1  O  1  S   -0.000000   0.995131   0.000655   0.000003   0.000067
    2  O  1  S   -0.000002   0.030609  -0.000522  -0.000012   0.000447
    3  O  1  X   -0.000001  -0.001960   0.000115   0.000053   0.000281
    4  O  1  Y   -0.000001   0.000230   0.000181   0.000035   0.000112
    5  O  1  Z   -0.000001   0.000329  -0.000007   0.000035  -0.000029
    6  O  1  S    0.000009  -0.022805   0.003237  -0.000262   0.000219
    7  O  1  X    0.000004   0.003783   0.000098  -0.000255  -0.000140
    8  O  1  Y    0.000009   0.002871  -0.002516   0.000014  -0.000182
    9  O  1  Z    0.000002  -0.000302  -0.000177  -0.000166  -0.000011
   10  O  1  S   -0.000202   0.013153  -0.002194   0.000941   0.013397
   11  O  1  X    0.000027  -0.000968   0.001767   0.000415  -0.004032
   12  O  1  Y   -0.000014  -0.004464  -0.000931  -0.000469  -0.001945
   13  O  1  Z   -0.000030  -0.000441  -0.000135   0.000397   0.000570
   14  O  2  S    0.000000  -0.000698   0.995221   0.000006  -0.000082
   15  O  2  S    0.000008  -0.000554   0.031204   0.000101   0.000185
   16  O  2  X   -0.000002  -0.000223   0.002170  -0.000078  -0.000616
   17  O  2  Y   -0.000000   0.000028  -0.000592  -0.000059   0.000136
   18  O  2  Z   -0.000000   0.000046  -0.000381   0.000005   0.000094
   19  O  2  S   -0.000025   0.002665  -0.029272  -0.000145  -0.000297
   20  O  2  X    0.000016   0.000954  -0.006943   0.000481   0.000180
   21  O  2  Y   -0.000005  -0.001354   0.002388   0.000807  -0.000017
   22  O  2  Z    0.000000  -0.000362   0.001379   0.000094   0.000001
   23  O  2  S    0.000125  -0.002574   0.010341  -0.000723   0.015751
   24  O  2  X    0.000026  -0.004099  -0.000197  -0.001924   0.005598
   25  O  2  Y    0.000006  -0.000907  -0.002115   0.000077  -0.005040
   26  O  2  Z   -0.000074   0.000385  -0.000328  -0.000195  -0.001436
   27  N  3  S    0.000001  -0.000007   0.000016   0.995519  -0.000001
   28  N  3  S    0.000020  -0.000061   0.000150   0.035150  -0.000132
   29  N  3  X   -0.000017  -0.000011  -0.000069   0.000553  -0.000002
   30  N  3  Y   -0.000003  -0.000069  -0.000006   0.000197  -0.000045
   31  N  3  Z   -0.000006  -0.000034   0.000022   0.002205  -0.000016
   32  N  3  S   -0.000115   0.000901  -0.000060  -0.044107   0.000456
   33  N  3  X    0.000167  -0.000006   0.000984  -0.002544  -0.000760
   34  N  3  Y    0.000009   0.000333  -0.000658  -0.000970  -0.000179
   35  N  3  Z   -0.000034   0.000687  -0.000422  -0.007281   0.000064
   36  N  3  S   -0.001154   0.015104   0.006456   0.053493   0.002867
   37  N  3  X   -0.000975  -0.002274  -0.002098  -0.010318   0.004011
   38  N  3  Y   -0.000553  -0.000053  -0.001097   0.004438   0.000219
   39  N  3  Z   -0.000732   0.003381   0.002375   0.004322   0.000326
   40  C  4  S   -0.000004   0.000028  -0.000041   0.000172   0.000027
   41  C  4  S   -0.000045   0.000099  -0.000226   0.000446   0.000079
   42  C  4  X    0.000001  -0.000041  -0.000062   0.000436   0.000105
   43  C  4  Y    0.000000  -0.000233   0.000158  -0.000068  -0.000143
   44  C  4  Z    0.000001  -0.000009  -0.000007   0.000124  -0.000065
   45  C  4  S    0.000208  -0.005005   0.007565   0.000161  -0.001900
   46  C  4  X    0.000090  -0.000201   0.004448  -0.016721  -0.001546
   47  C  4  Y   -0.000022  -0.001428   0.003694   0.002646   0.001336
   48  C  4  Z    0.000030  -0.000769   0.001401  -0.000635   0.000331
   49  C  4  S    0.001646  -0.100976   0.118967  -0.063322  -0.043759
   50  C  4  X   -0.000849  -0.008298   0.011012   0.015344  -0.002896
   51  C  4  Y    0.013961  -0.011334   0.073943  -0.007858  -0.063461
   52  C  4  Z    0.003215  -0.008540   0.013600  -0.005020  -0.011123
   53  C  5  S    0.000000   0.000005   0.000005  -0.000026   0.001153
   54  C  5  S   -0.000002  -0.000078  -0.000076  -0.000332  -0.000485
   55  C  5  X    0.000008   0.000260  -0.000321   0.000016   0.000101
   56  C  5  Y   -0.000001  -0.000092  -0.000279   0.000325  -0.000614
   57  C  5  Z    0.000003  -0.000028  -0.000020   0.000070  -0.000088
   58  C  5  S   -0.000049  -0.000186   0.002432   0.003899   0.007662
   59  C  5  X   -0.000095  -0.007235   0.009839   0.004437   0.000570
   60  C  5  Y    0.000070  -0.001606   0.008091  -0.009733   0.003867
   61  C  5  Z   -0.000012  -0.000060   0.000963  -0.001449   0.000527
   62  C  5  S   -0.005337  -0.025080  -0.030472  -0.030835   0.148672
   63  C  5  X    0.011789  -0.052775   0.087088  -0.034013  -0.062082
   64  C  5  Y    0.001574  -0.035744   0.045776  -0.012197   0.012563
   65  C  5  Z    0.000826  -0.005865   0.013316  -0.000589  -0.002577
   66  C  6  S   -0.000005  -0.000015  -0.000003   0.000061   0.000008
   67  C  6  S   -0.000026  -0.000151  -0.000012   0.000532   0.000021
   68  C  6  X    0.000003  -0.000024   0.000052   0.000164  -0.000032
   69  C  6  Y   -0.000000  -0.000020  -0.000022  -0.000065  -0.000046
   70  C  6  Z   -0.000003   0.000020  -0.000029  -0.000202   0.000009
   71  C  6  S    0.000725   0.000174  -0.000168  -0.001711  -0.000299
   72  C  6  X   -0.000906   0.000556  -0.000904  -0.003997  -0.000017
   73  C  6  Y    0.000083   0.000129   0.000261   0.000795   0.000569
   74  C  6  Z   -0.000125  -0.000743   0.000271   0.003960   0.000285
   75  C  6  S   -0.018209   0.033355  -0.057038   0.061721   0.037472
   76  C  6  X   -0.026299   0.008272  -0.008599  -0.002492   0.012157
   77  C  6  Y    0.002452  -0.000240  -0.002793   0.001823  -0.000675
   78  C  6  Z   -0.004873   0.036477  -0.012551   0.068138   0.007065
   79  C  7  S   -0.000001  -0.000026   0.000016  -0.000079  -0.000059
   80  C  7  S   -0.000009  -0.000251   0.000131  -0.000765  -0.000324
   81  C  7  X    0.000005  -0.000040   0.000065   0.000154  -0.000041
   82  C  7  Y   -0.000002  -0.000011  -0.000044   0.000024  -0.000062
   83  C  7  Z   -0.000002  -0.000003   0.000001  -0.000038  -0.000017
   84  C  7  S    0.000027   0.001431  -0.001206   0.007223   0.002674
   85  C  7  X   -0.000065   0.000766  -0.001807   0.002429   0.000922
   86  C  7  Y   -0.000077   0.000319  -0.000779   0.005497   0.002390
   87  C  7  Z   -0.000013   0.000247  -0.000461   0.001305   0.000443
   88  C  7  S    0.016593   0.001536   0.004643  -0.049665  -0.017416
   89  C  7  X   -0.004831  -0.003089  -0.037834  -0.033845   0.030686
   90  C  7  Y    0.005324   0.002289   0.018853   0.011721  -0.017269
   91  C  7  Z    0.000321   0.001341   0.001051   0.002025   0.000224
   92  C  8  S    0.000001  -0.000021   0.000022   0.000011  -0.000003
   93  C  8  S    0.000008  -0.000192   0.000027  -0.000031  -0.000063
   94  C  8  X   -0.000006  -0.000089   0.000186   0.000242   0.000014
   95  C  8  Y   -0.000001  -0.000047  -0.000242   0.000008  -0.000101
   96  C  8  Z    0.000002   0.000002  -0.000041   0.000007  -0.000059
   97  C  8  S    0.000042   0.004902  -0.006559  -0.005033  -0.002918
   98  C  8  X   -0.000036  -0.002594   0.003260   0.002071   0.001545
   99  C  8  Y   -0.000040   0.000703  -0.000230   0.002462   0.001159
  100  C  8  Z   -0.000013  -0.000195   0.000452   0.000550   0.000483
  101  C  8  S   -0.013503   0.110234  -0.054736   0.081916  -0.027272
  102  C  8  X    0.005348  -0.019002   0.046871  -0.009244  -0.021160
  103  C  8  Y   -0.002304   0.001744  -0.038180  -0.001875   0.031004
  104  C  8  Z   -0.000037  -0.001206  -0.002863  -0.002157   0.003659
  105  C  9  S    0.000000   0.000026   0.000020   0.000190   0.000057
  106  C  9  S    0.000024   0.000227   0.000142  -0.000094   0.000223
  107  C  9  X   -0.000029   0.000023   0.000007  -0.000198   0.000049
  108  C  9  Y    0.000001   0.000019  -0.000045   0.000052   0.000182
  109  C  9  Z   -0.000007  -0.000035  -0.000026   0.000622   0.000022
  110  C  9  S    0.000552  -0.001991   0.000855   0.011343  -0.000208
  111  C  9  X   -0.000008  -0.000997  -0.000237   0.005693  -0.000778
  112  C  9  Y   -0.000004  -0.000069  -0.000005  -0.001096  -0.000842
  113  C  9  Z   -0.000122   0.000915  -0.000665  -0.007707   0.000092
  114  C  9  S    0.048591  -0.068957   0.014711  -0.087821  -0.043227
  115  C  9  X   -0.012498   0.021412  -0.020878   0.002158   0.007660
  116  C  9  Y    0.000843  -0.005131   0.001619  -0.002631  -0.000935
  117  C  9  Z   -0.002553   0.005231   0.010554   0.020793   0.005129
  118  C 10  S    0.000000   0.000003  -0.000003   0.000002  -0.000016
  119  C 10  S    0.000007   0.000033  -0.000019  -0.000084  -0.000053
  120  C 10  X   -0.000005   0.000018  -0.000094   0.000200   0.000060
  121  C 10  Y    0.000002   0.000031  -0.000039  -0.000017  -0.000084
  122  C 10  Z    0.000003  -0.000010  -0.000020   0.000011  -0.000009
  123  C 10  S    0.000049  -0.000188   0.000395  -0.003877  -0.002191
  124  C 10  X    0.000032   0.000920  -0.000851   0.000059   0.000136
  125  C 10  Y    0.000057  -0.000044  -0.000321  -0.002098  -0.001524
  126  C 10  Z   -0.000000   0.000094  -0.000031  -0.000363  -0.000199
  127  C 10  S   -0.003061   0.018282   0.033253   0.061222  -0.042935
  128  C 10  X   -0.002977  -0.002006  -0.028434  -0.022852   0.021181
  129  C 10  Y   -0.002391   0.002366  -0.006500  -0.002352   0.002348
  130  C 10  Z   -0.000528   0.000162  -0.003526  -0.003611   0.001338
  131  C 11  S    0.000002   0.000011  -0.000029  -0.000027  -0.000094
  132  C 11  S    0.000016   0.000074  -0.000268  -0.000188  -0.000486
  133  C 11  X   -0.000005  -0.000004   0.000038   0.000011   0.000080
  134  C 11  Y   -0.000001  -0.000069   0.000046   0.000060  -0.000061
  135  C 11  Z    0.000002  -0.000018   0.000017   0.000007   0.000006
  136  C 11  S   -0.000115  -0.000622   0.001320   0.003686   0.003396
  137  C 11  X    0.000069   0.000484  -0.001613  -0.001957  -0.002519
  138  C 11  Y    0.000024   0.000630  -0.000212  -0.000190   0.000545
  139  C 11  Z    0.000002   0.000182  -0.000276  -0.000161  -0.000175
  140  C 11  S    0.003755  -0.032408  -0.040747  -0.018430   0.071818
  141  C 11  X   -0.001285   0.007514  -0.001051   0.005984  -0.009772
  142  C 11  Y   -0.003207  -0.002610  -0.032271  -0.011193   0.024715
  143  C 11  Z   -0.000639   0.000143  -0.005258  -0.000253   0.003539
  144  C 12  S    0.000020  -0.000003   0.000004   0.000032   0.000035
  145  C 12  S    0.000157  -0.000035   0.000008   0.000212   0.000148
  146  C 12  X   -0.000022  -0.000032  -0.000094  -0.000300   0.000040
  147  C 12  Y    0.000002  -0.000037  -0.000015   0.000002   0.000042
  148  C 12  Z   -0.000001   0.000014   0.000010   0.000006  -0.000021
  149  C 12  S   -0.001958   0.000365  -0.000813  -0.006012  -0.000619
  150  C 12  X    0.000903   0.000437   0.000701   0.002282  -0.000439
  151  C 12  Y   -0.000056   0.000076   0.000031  -0.000075  -0.000318
  152  C 12  Z    0.000770  -0.000526   0.000512   0.002226   0.000227
  153  C 12  S   -0.000204  -0.038717   0.048885  -0.074532  -0.021356
  154  C 12  X   -0.004789  -0.005865  -0.008502  -0.040637   0.002161
  155  C 12  Y    0.000522   0.002245   0.002724   0.006587   0.001153
  156  C 12  Z    0.002632   0.005738  -0.007755   0.014576   0.001499
  157  C 13  S    0.000019   0.000000   0.000003   0.000007   0.000010
  158  C 13  S    0.000159  -0.000018   0.000024   0.000131   0.000043
  159  C 13  X   -0.000015  -0.000037  -0.000027   0.000158  -0.000062
  160  C 13  Y   -0.000004  -0.000027  -0.000022  -0.000004   0.000029
  161  C 13  Z   -0.000000  -0.000026  -0.000006   0.000112  -0.000022
  162  C 13  S   -0.001831  -0.000238  -0.000247   0.002559  -0.000724
  163  C 13  X    0.001097  -0.000145   0.000555   0.000312   0.000810
  164  C 13  Y   -0.000101   0.000124   0.000018  -0.000110  -0.000327
  165  C 13  Z   -0.000429  -0.000163  -0.000115  -0.000310   0.000507
  166  C 13  S    0.005390   0.039852  -0.018288   0.070853  -0.033470
  167  C 13  X   -0.005284   0.018286   0.012719   0.030727   0.020984
  168  C 13  Y    0.000181   0.000174   0.001019  -0.000423  -0.000214
  169  C 13  Z   -0.004663   0.019213   0.004967   0.023357   0.006561
  170  C 14  S   -0.000017   0.000002  -0.000004  -0.000030  -0.000013
  171  C 14  S   -0.000126   0.000020  -0.000021  -0.000217  -0.000060
  172  C 14  X   -0.000072   0.000004   0.000038   0.000070  -0.000005
  173  C 14  Y    0.000007   0.000012   0.000003   0.000007   0.000017
  174  C 14  Z   -0.000011  -0.000015   0.000015   0.000004  -0.000007
  175  C 14  S    0.001783  -0.000063   0.000802   0.003365   0.000238
  176  C 14  X    0.001265   0.000037   0.000289   0.002170  -0.000038
  177  C 14  Y   -0.000138  -0.000084  -0.000086  -0.000287   0.000032
  178  C 14  Z   -0.000375   0.000397  -0.000263   0.000047  -0.000093
  179  C 14  S   -0.000751   0.015675  -0.044339  -0.029924   0.011708
  180  C 14  X   -0.003217  -0.002472  -0.006280  -0.010906   0.003889
  181  C 14  Y    0.000190  -0.000765  -0.000747  -0.000617  -0.001461
  182  C 14  Z   -0.004282  -0.004149   0.003223  -0.008974   0.000961
  183  C 15  S   -0.000016   0.000002   0.000001   0.000018  -0.000019
  184  C 15  S   -0.000119   0.000020   0.000029   0.000180  -0.000089
  185  C 15  X   -0.000069   0.000019   0.000018  -0.000002  -0.000008
  186  C 15  Y    0.000006   0.000007   0.000007   0.000008   0.000026
  187  C 15  Z   -0.000017  -0.000003   0.000016   0.000036   0.000006
  188  C 15  S    0.001743  -0.000104   0.000370  -0.000383   0.000867
  189  C 15  X    0.000971  -0.000247   0.000130  -0.000762   0.000774
  190  C 15  Y   -0.000069  -0.000047  -0.000060   0.000060  -0.000113
  191  C 15  Z    0.000847   0.000071   0.000120   0.000095  -0.000183
  192  C 15  S   -0.005398  -0.000728   0.026087   0.025537   0.050709
  193  C 15  X   -0.006070   0.012506   0.005816   0.008900   0.010998
  194  C 15  Y    0.000797  -0.002255  -0.002011  -0.002124  -0.002180
  195  C 15  Z    0.002711  -0.006984  -0.000196  -0.002602   0.002048
  196  C 16  S   -0.000009  -0.000001   0.000003   0.000004  -0.000018
  197  C 16  S   -0.000124   0.000000   0.000022   0.000025  -0.000058
  198  C 16  X    0.000048   0.000009   0.000024   0.000054  -0.000018
  199  C 16  Y   -0.000004   0.000005   0.000006  -0.000004  -0.000000
  200  C 16  Z    0.000009   0.000006  -0.000003  -0.000053   0.000002
  201  C 16  S   -0.000743   0.000170  -0.000353  -0.000457   0.000312
  202  C 16  X   -0.000579   0.000006  -0.000288  -0.000705   0.000126
  203  C 16  Y    0.000053   0.000022   0.000011   0.000094   0.000001
  204  C 16  Z   -0.000088   0.000225  -0.000122   0.000399  -0.000275
  205  C 16  S   -0.010952   0.011710   0.010571  -0.003082  -0.001048
  206  C 16  X   -0.018067   0.002972  -0.001715  -0.000043  -0.000726
  207  C 16  Y    0.001635  -0.000049   0.001916   0.000745   0.000430
  208  C 16  Z   -0.003384  -0.011412   0.004360  -0.004068   0.001502
  209  C 17  S   -0.000001   0.000047   0.000272  -0.000045   0.995519
  210  C 17  S   -0.000005   0.000080   0.000673  -0.000361   0.038831
  211  C 17  X   -0.000003   0.000367   0.000047   0.000105  -0.000423
  212  C 17  Y    0.000002   0.000109  -0.000132  -0.000081   0.000941
  213  C 17  Z   -0.000003  -0.000098   0.000046  -0.000027   0.000149
  214  C 17  S   -0.000018   0.003134   0.006167   0.006525  -0.040210
  215  C 17  X    0.000025   0.006970  -0.016993   0.001345  -0.000597
  216  C 17  Y    0.000018   0.006111   0.003676  -0.003558   0.001423
  217  C 17  Z    0.000020   0.000108   0.001974  -0.000242   0.000183
  218  C 17  S    0.002669   0.020608  -0.018932   0.020337  -0.101589
  219  C 17  X   -0.000031   0.004801  -0.001884   0.001436  -0.009325
  220  C 17  Y   -0.000494  -0.001800   0.004710  -0.004404   0.020423
  221  C 17  Z   -0.000005   0.000124  -0.000407  -0.001578   0.003150
  222  H 18  S    0.000003   0.000002  -0.000130   0.000110   0.000106
  223  H 18  S   -0.000115   0.000203  -0.000505   0.002268   0.000782
  224  H 18  X   -0.000003   0.000011  -0.000016   0.000238   0.000053
  225  H 18  Y   -0.000003  -0.000006  -0.000004  -0.000054   0.000002
  226  H 18  Z    0.000000  -0.000018   0.000008   0.000011   0.000012
  227  H 19  S   -0.000004  -0.000061   0.000138  -0.000070  -0.000028
  228  H 19  S    0.000070  -0.001084  -0.000812  -0.001154  -0.001376
  229  H 19  X   -0.000001   0.000159  -0.000021  -0.000005   0.000111
  230  H 19  Y   -0.000002  -0.000134  -0.000005   0.000013  -0.000054
  231  H 19  Z    0.000000   0.000021  -0.000020  -0.000005  -0.000018
  232  H 20  S    0.000018   0.000008   0.000123  -0.000133   0.000138
  233  H 20  S   -0.000139   0.000002  -0.000118   0.000951   0.000460
  234  H 20  X   -0.000004  -0.000010  -0.000032  -0.000264   0.000026
  235  H 20  Y   -0.000000   0.000008  -0.000023   0.000024  -0.000011
  236  H 20  Z    0.000007  -0.000010   0.000025   0.000174   0.000011
  237  H 21  S   -0.000001  -0.000034   0.000001  -0.000050  -0.000071
  238  H 21  S    0.000036  -0.000165  -0.000115  -0.000329  -0.000309
  239  H 21  X   -0.000002  -0.000034   0.000043   0.000014   0.000011
  240  H 21  Y    0.000000  -0.000016   0.000018   0.000045   0.000008
  241  H 21  Z    0.000001  -0.000012  -0.000003   0.000010   0.000002
  242  H 22  S    0.000000  -0.000060   0.000068  -0.000039   0.000146
  243  H 22  S   -0.000026   0.000170   0.000721   0.000799   0.000431
  244  H 22  X   -0.000000  -0.000015  -0.000030  -0.000005  -0.000022
  245  H 22  Y   -0.000001  -0.000019  -0.000015   0.000016  -0.000026
  246  H 22  Z    0.000001  -0.000010   0.000009  -0.000002   0.000001
  247  H 23  S   -0.000025  -0.000031  -0.000036  -0.000203   0.000052
  248  H 23  S   -0.000201   0.000340  -0.000358  -0.000389  -0.000212
  249  H 23  X   -0.000025  -0.000016  -0.000021  -0.000098   0.000005
  250  H 23  Y    0.000003   0.000001  -0.000003   0.000010   0.000023
  251  H 23  Z    0.000011  -0.000012   0.000014   0.000008  -0.000004
  252  H 24  S   -0.000017   0.000020  -0.000019   0.000066  -0.000045
  253  H 24  S   -0.000327  -0.000125  -0.000456  -0.002443   0.000278
  254  H 24  X   -0.000017   0.000004  -0.000009  -0.000054  -0.000018
  255  H 24  Y    0.000001  -0.000001  -0.000007   0.000007   0.000041
  256  H 24  Z   -0.000024   0.000002  -0.000017  -0.000134   0.000005
  257  H 25  S    0.000044  -0.000021  -0.000023  -0.000030   0.000002
  258  H 25  S    0.000467  -0.000107   0.000293   0.000375  -0.000066
  259  H 25  X   -0.000043  -0.000006  -0.000000  -0.000063   0.000002
  260  H 25  Y    0.000002   0.000009   0.000006   0.000015   0.000008
  261  H 25  Z   -0.000040  -0.000002  -0.000007  -0.000053   0.000001
  262  H 26  S    0.000046  -0.000004  -0.000008  -0.000009  -0.000010
  263  H 26  S    0.000483   0.000077   0.000078   0.000031  -0.000171
  264  H 26  X   -0.000051   0.000009  -0.000001   0.000030  -0.000025
  265  H 26  Y    0.000006   0.000006   0.000006   0.000000   0.000014
  266  H 26  Z    0.000021  -0.000000   0.000003  -0.000009   0.000003
  267  CL27  S    0.996455   0.000000  -0.000001  -0.000002   0.000000
  268  CL27  S    0.012663   0.000001  -0.000001  -0.000001   0.000002
  269  CL27  X    0.000081   0.000001   0.000003   0.000006   0.000003
  270  CL27  Y   -0.000008  -0.000000  -0.000002  -0.000001  -0.000001
  271  CL27  Z    0.000016   0.000002   0.000000   0.000005  -0.000002
  272  CL27  S   -0.005798   0.000011  -0.000033  -0.000057   0.000014
  273  CL27  X   -0.000161  -0.000004  -0.000018  -0.000037  -0.000017
  274  CL27  Y    0.000015   0.000002   0.000013   0.000008   0.000004
  275  CL27  Z   -0.000032  -0.000011  -0.000001  -0.000033   0.000011
  276  CL27  S    0.006632  -0.000068  -0.000011  -0.000056  -0.000106
  277  CL27  X    0.000392   0.000015  -0.000008  -0.000068   0.000026
  278  CL27  Y   -0.000034  -0.000015  -0.000041  -0.000022  -0.000030
  279  CL27  Z    0.000076   0.000020   0.000001   0.000008  -0.000007
  280  CL27  S   -0.023876   0.000032  -0.001554  -0.001232   0.001020
  281  CL27  X   -0.006008  -0.000032  -0.000075  -0.000157   0.000213
  282  CL27  Y    0.000547  -0.000020  -0.000174   0.000047   0.000284
  283  CL27  Z   -0.001133   0.000322  -0.000705  -0.000429  -0.000246
  284  H 28  S   -0.000004   0.000262   0.000063  -0.000013   0.000481
  285  H 28  S    0.000033   0.001409   0.001510   0.000604  -0.002940
  286  H 28  X   -0.000000  -0.000693   0.000357  -0.000047  -0.000149
  287  H 28  Y    0.000000   0.000930   0.000092  -0.000063  -0.000327
  288  H 28  Z    0.000001   0.000206  -0.000057   0.000016  -0.000015

                      6          7          8          9         10
                  -10.2730   -10.2616   -10.2565   -10.2247   -10.2209
                     A          A          A          A          A   
    1  O  1  S    0.000000   0.000011   0.000001  -0.000004  -0.000003
    2  O  1  S    0.000004   0.000148  -0.000054  -0.000126  -0.000041
    3  O  1  X    0.000000  -0.000002  -0.000007   0.000073   0.000030
    4  O  1  Y   -0.000001  -0.000014   0.000044   0.000010  -0.000020
    5  O  1  Z    0.000004   0.000008   0.000015   0.000018   0.000005
    6  O  1  S    0.000033  -0.000916  -0.000512   0.000119   0.000094
    7  O  1  X   -0.000037   0.000217   0.000239  -0.000534  -0.000203
    8  O  1  Y   -0.000034   0.000275  -0.000106   0.000133   0.000227
    9  O  1  Z   -0.000018  -0.000043  -0.000132  -0.000021  -0.000003
   10  O  1  S    0.001040  -0.000276  -0.001381   0.003046  -0.002738
   11  O  1  X   -0.000288   0.000347   0.000121  -0.000546   0.001940
   12  O  1  Y   -0.000297   0.000035  -0.000343   0.000027  -0.000997
   13  O  1  Z    0.000037   0.000048  -0.000114   0.000264  -0.000106
   14  O  2  S   -0.000000   0.000012   0.000000   0.000006  -0.000002
   15  O  2  S    0.000005   0.000086   0.000002  -0.000042  -0.000031
   16  O  2  X   -0.000016  -0.000005  -0.000007  -0.000101   0.000039
[...]
    STATE NUMBER   1  ENERGY =    3.463638 EV
    STATE NUMBER   2  ENERGY =    3.923879 EV
    STATE NUMBER   3  ENERGY =    4.318330 EV
    STATE NUMBER   4  ENERGY =    4.636976 EV
    STATE NUMBER   5  ENERGY =    4.718200 EV
    STATE NUMBER   6  ENERGY =    4.723836 EV
    STATE NUMBER   7  ENERGY =    4.845687 EV
    STATE NUMBER   8  ENERGY =    4.966983 EV
    STATE NUMBER   9  ENERGY =    5.114169 EV
    STATE NUMBER  10  ENERGY =    5.165383 EV
    MAX ERROR =  4.796E-07 / 1.000E-07
 ITERATION #                      8
    CURRENT VECTORS  119 TO 122 (   4 VECTORS)
    STATE NUMBER   1  ENERGY =    3.463638 EV
    STATE NUMBER   2  ENERGY =    3.923879 EV
    STATE NUMBER   3  ENERGY =    4.318330 EV
    STATE NUMBER   4  ENERGY =    4.636976 EV
    STATE NUMBER   5  ENERGY =    4.718199 EV
    STATE NUMBER   6  ENERGY =    4.723836 EV
    STATE NUMBER   7  ENERGY =    4.845687 EV
    STATE NUMBER   8  ENERGY =    4.966983 EV
    STATE NUMBER   9  ENERGY =    5.114166 EV
    STATE NUMBER  10  ENERGY =    5.165377 EV
    MAX ERROR =  1.169E-07 / 1.000E-07
 ITERATION #                      9
    CURRENT VECTORS  123 TO 124 (   2 VECTORS)
    STATE NUMBER   1  ENERGY =    3.463638 EV
    STATE NUMBER   2  ENERGY =    3.923879 EV
    STATE NUMBER   3  ENERGY =    4.318330 EV
    STATE NUMBER   4  ENERGY =    4.636976 EV
    STATE NUMBER   5  ENERGY =    4.718199 EV
    STATE NUMBER   6  ENERGY =    4.723836 EV
    STATE NUMBER   7  ENERGY =    4.845687 EV
    STATE NUMBER   8  ENERGY =    4.966983 EV
    STATE NUMBER   9  ENERGY =    5.114165 EV
    STATE NUMBER  10  ENERGY =    5.165376 EV
    MAX ERROR =  8.621E-08 / 1.000E-07
  
   ---------------------------------  
     R-TDDFT CALCULATION CONVERGED
   ---------------------------------  
 NUMBER OF USED VECTORS / MAX = 124 / 500
 NUMBER OF ITERATIONS   / MAX =   9 / 100
 NUMBER OF SINGLE EXCITATIONS = 14740
 NUMBER OF ATOMIC ORBITALS    = 288
 NUMBER OF ELECTRONS          =         134.0007017

          -------------------
          SINGLET EXCITATIONS
          -------------------

 STATE #   1  ENERGY =    3.463638 EV
 OSCILLATOR STRENGTH =    0.054206
 LAMBDA DIAGNOSTIC   =    0.577 (RYDBERG/CHARGE TRANSFER CHARACTER)
 SYMMETRY OF STATE   =    A   
                 EXCITATION  DE-EXCITATION
     OCC     VIR  AMPLITUDE      AMPLITUDE
      I       A     X(I->A)        Y(A->I)
     ---     ---   --------       --------
     62      68   -0.112435       0.010193
     66      68   -0.085505      -0.001372
     67      68   -0.938343       0.029183
     62      69    0.050356      -0.006612
     66      69    0.064814      -0.001673
     67      69    0.278045      -0.002436
     67      74    0.042754      -0.003305
     67      76    0.070048      -0.004969
     67      77    0.039880      -0.002306
     67      78    0.037231      -0.003108

 STATE #   2  ENERGY =    3.923879 EV
 OSCILLATOR STRENGTH =    0.130205
 LAMBDA DIAGNOSTIC   =    0.625 (RYDBERG/CHARGE TRANSFER CHARACTER)
 SYMMETRY OF STATE   =    A   
                 EXCITATION  DE-EXCITATION
     OCC     VIR  AMPLITUDE      AMPLITUDE
      I       A     X(I->A)        Y(A->I)
     ---     ---   --------       --------
     63      68    0.092331       0.002608
     65      68    0.105397       0.012816
     66      68   -0.187302      -0.001124
     67      68    0.288759      -0.016990
     62      69    0.044151       0.007113
     63      69    0.077160      -0.001864
     66      69    0.060711      -0.004545
     67      69    0.907202      -0.033178
     65      71    0.143407       0.036510
     67      71   -0.033767      -0.006148
     67      79    0.033612       0.008279

 STATE #   3  ENERGY =    4.318330 EV
 OSCILLATOR STRENGTH =    0.009675
 LAMBDA DIAGNOSTIC   =    0.564 (RYDBERG/CHARGE TRANSFER CHARACTER)
 SYMMETRY OF STATE   =    A   
                 EXCITATION  DE-EXCITATION
     OCC     VIR  AMPLITUDE      AMPLITUDE
      I       A     X(I->A)        Y(A->I)
     ---     ---   --------       --------
     63      68   -0.306837       0.005915
     65      68    0.141638       0.001994
     66      68    0.556139      -0.017721
     67      68    0.037360       0.000348
     63      69   -0.396875       0.008691
     65      69    0.076675      -0.004329
     66      69    0.614005       0.003827
     67      69    0.099854      -0.010533
     65      71    0.063359       0.010414
     66      71    0.038700       0.001130
     67      71   -0.061531      -0.005059
     63      79   -0.086322       0.004885
     66      79    0.030426       0.000048

 STATE #   4  ENERGY =    4.636976 EV
 OSCILLATOR STRENGTH =    0.512190
 LAMBDA DIAGNOSTIC   =    0.631 (RYDBERG/CHARGE TRANSFER CHARACTER)
 SYMMETRY OF STATE   =    A   
                 EXCITATION  DE-EXCITATION
     OCC     VIR  AMPLITUDE      AMPLITUDE
      I       A     X(I->A)        Y(A->I)
     ---     ---   --------       --------
     62      68   -0.032481       0.006191
     63      68   -0.172751       0.006394
     64      68   -0.037279      -0.002073
     65      68   -0.133756      -0.004374
     66      68   -0.743167       0.057490
     67      68    0.079830      -0.008300
     60      69    0.060492       0.008150
     63      69   -0.328867       0.002977
     65      69    0.062931      -0.000492
     66      69    0.434853      -0.029435
     67      69   -0.129692       0.014376
     64      70   -0.092447      -0.014548
     66      70    0.085251       0.003297
     67      70   -0.049013      -0.000911
     65      71   -0.053610      -0.005232
     67      71    0.163101       0.005146
     67      72    0.072501       0.007294
     63      79   -0.061159       0.003949

 STATE #   5  ENERGY =    4.718199 EV
 OSCILLATOR STRENGTH =    0.006131
 LAMBDA DIAGNOSTIC   =    0.475 (RYDBERG/CHARGE TRANSFER CHARACTER)
 SYMMETRY OF STATE   =    A   
                 EXCITATION  DE-EXCITATION
     OCC     VIR  AMPLITUDE      AMPLITUDE
      I       A     X(I->A)        Y(A->I)
     ---     ---   --------       --------
     60      68    0.073338       0.000642
     62      68   -0.046318      -0.001367
     63      68   -0.467587       0.003766
     64      68    0.194063      -0.000880
     65      68    0.465057      -0.005917
     66      68   -0.139179      -0.003687
     58      69   -0.033335       0.001473
     59      69    0.032320      -0.000329
     60      69    0.089986      -0.003439
     62      69   -0.091058      -0.000559
     63      69   -0.395877       0.005404
     64      69   -0.055045       0.000332
     65      69    0.069411      -0.008613
     66      69   -0.517775       0.001325
     67      69    0.032501       0.007009
     66      70   -0.113488      -0.005357
     67      70    0.090181       0.000537
     65      71    0.038461       0.001089
     66      71   -0.031303      -0.000362
     67      71   -0.093068      -0.001479
     63      76    0.036456      -0.000926
     63      79   -0.083299       0.004696
     67      79   -0.031249      -0.000110

 STATE #   6  ENERGY =    4.723836 EV
 OSCILLATOR STRENGTH =    0.007749
 LAMBDA DIAGNOSTIC   =    0.435 (RYDBERG/CHARGE TRANSFER CHARACTER)
 SYMMETRY OF STATE   =    A   
                 EXCITATION  DE-EXCITATION
     OCC     VIR  AMPLITUDE      AMPLITUDE
      I       A     X(I->A)        Y(A->I)
     ---     ---   --------       --------
     63      68   -0.103103       0.000092
     64      68   -0.747634       0.004526
     65      68    0.159515      -0.001406
     66      68    0.033304      -0.007647
     63      69   -0.060390       0.001017
     64      69    0.233700      -0.001918
     66      69   -0.164069       0.003710
     58      70   -0.040351      -0.008660
     63      70    0.056991       0.004889
     66      70    0.444916       0.020612
     67      70   -0.325404      -0.004669
     64      71    0.037782      -0.000273
     67      71   -0.037101      -0.000679

 STATE #   7  ENERGY =    4.845687 EV
 OSCILLATOR STRENGTH =    0.056012
 LAMBDA DIAGNOSTIC   =    0.450 (RYDBERG/CHARGE TRANSFER CHARACTER)
 SYMMETRY OF STATE   =    A   
                 EXCITATION  DE-EXCITATION
     OCC     VIR  AMPLITUDE      AMPLITUDE
      I       A     X(I->A)        Y(A->I)
     ---     ---   --------       --------
     59      68    0.041218       0.002834
     60      68    0.054283       0.005780
     62      68    0.036076       0.000644
     63      68   -0.279548       0.003022
     64      68   -0.042280       0.001173
     65      68   -0.799111       0.009794
     66      68    0.129245      -0.023185
     60      69    0.045014      -0.002950
     63      69   -0.212529       0.005408
     65      69    0.284159       0.009378
     66      69   -0.290297       0.006604
     67      69    0.174587      -0.020160
     64      70    0.038016       0.004549
     67      71    0.037026       0.001276
     67      72   -0.033718      -0.002832
     65      76    0.039251       0.001743
     63      79   -0.043008       0.000501
     67      79    0.032249       0.005302

 STATE #   8  ENERGY =    4.966983 EV
 OSCILLATOR STRENGTH =    0.006074
 LAMBDA DIAGNOSTIC   =    0.219 (RYDBERG/CHARGE TRANSFER CHARACTER)
 SYMMETRY OF STATE   =    A   
                 EXCITATION  DE-EXCITATION
     OCC     VIR  AMPLITUDE      AMPLITUDE
      I       A     X(I->A)        Y(A->I)
     ---     ---   --------       --------
     64      68   -0.248090       0.006824
     64      69    0.039031      -0.004598
     62      70    0.071915      -0.000221
     66      70    0.247491       0.011404
     67      70    0.931502      -0.002684

 STATE #   9  ENERGY =    5.114165 EV
 OSCILLATOR STRENGTH =    0.032523
 LAMBDA DIAGNOSTIC   =    0.565 (RYDBERG/CHARGE TRANSFER CHARACTER)
 SYMMETRY OF STATE   =    A   
                 EXCITATION  DE-EXCITATION
     OCC     VIR  AMPLITUDE      AMPLITUDE
      I       A     X(I->A)        Y(A->I)
     ---     ---   --------       --------
     60      68   -0.045662      -0.005407
     63      68    0.650275      -0.005274
     65      68    0.034777      -0.007761
     59      69    0.034055       0.003406
     60      69    0.034851       0.001700
     62      69   -0.095602      -0.001153
     63      69   -0.457250       0.001584
     65      69    0.435719      -0.017953
     66      69   -0.049263       0.001027
     67      69   -0.045568       0.010773
     65      71    0.078208       0.007213
     67      71   -0.371399       0.008733
     63      79   -0.037234       0.002051

 STATE #  10  ENERGY =    5.165376 EV
 OSCILLATOR STRENGTH =    0.032429
 LAMBDA DIAGNOSTIC   =    0.630 (RYDBERG/CHARGE TRANSFER CHARACTER)
 SYMMETRY OF STATE   =    A   
                 EXCITATION  DE-EXCITATION
     OCC     VIR  AMPLITUDE      AMPLITUDE
      I       A     X(I->A)        Y(A->I)
     ---     ---   --------       --------
     60      68   -0.033272      -0.001102
     62      68   -0.078163      -0.001920
     63      68   -0.326210       0.000207
     64      68    0.040261      -0.002250
     65      68    0.042842      -0.010614
     66      68   -0.106931       0.019324
     60      69   -0.043182       0.002090
     62      69   -0.030551       0.000842
     63      69    0.497774      -0.007568
     65      69    0.541247      -0.022812
     66      69    0.147510      -0.008291
     67      69   -0.078012       0.013217
     64      70   -0.068970      -0.004690
     66      70    0.045399      -0.000713
     65      71    0.111807       0.011559
     66      71   -0.045681      -0.000790
     67      71   -0.511175       0.014558
     67      72    0.040276       0.004483
     67      73    0.034695       0.001638
     63      79    0.044385      -0.000423

                          SUMMARY OF TDDFT RESULTS

   STATE             ENERGY     EXCITATION  TRANSITION DIPOLE, A.U.  OSCILLATOR
   0 ->             HARTREE          EV         X       Y       Z     STRENGTH
   0  A        -1204.2543296754    0.000
   1  A        -1204.1270433081    3.464    -0.7921 -0.1019 -0.0302    0.0542
   2  A        -1204.1101297608    3.924     1.0162  0.5589  0.0976    0.1302
   3  A        -1204.0956339485    4.318    -0.2684  0.1378 -0.0206    0.0097
   4  A        -1204.0839239497    4.637     2.1100 -0.1683  0.1682    0.5122
   5  A        -1204.0809390289    4.718    -0.1462 -0.1709  0.0494    0.0061
   6  A        -1204.0807319070    4.724    -0.1317 -0.0667 -0.2125    0.0077
   7  A        -1204.0762539606    4.846    -0.4914  0.4788 -0.0319    0.0560
   8  A        -1204.0717963998    4.967     0.1709 -0.0088 -0.1436    0.0061
   9  A        -1204.0663875476    5.114    -0.4199 -0.2740 -0.0904    0.0325
  10  A        -1204.0645055892    5.165     0.2905 -0.4057  0.0851    0.0324
  
 TRANSITION        EXCITATION            TRANSITION DIPOLE, A.U.     OSCILLATOR
                       EV              X       Y       Z       DIP    STRENGTH

  1  ->  2           0.460         -1.3183 -0.4067 -0.0047   1.3796    0.0215
  1  ->  3           0.855          0.5433 -0.3149 -0.0728   0.6322    0.0084
  1  ->  4           1.173         -0.5427  0.3094  0.0771   0.6294    0.0114
  1  ->  5           1.255          0.0740 -0.4393 -0.1397   0.4669    0.0067
  1  ->  6           1.260          0.0098 -0.1298  0.1183   0.1759    0.0010
  1  ->  7           1.382         -0.4677  0.4321  0.0558   0.6392    0.0138
  1  ->  8           1.503          0.0283 -0.0094 -0.3562   0.3575    0.0047
  1  ->  9           1.651          0.6562  0.1851  0.1098   0.6906    0.0193
  1  -> 10           1.702          0.7757 -0.0548  0.0064   0.7777    0.0252
  2  ->  3           0.394         -0.9472  0.6998  0.1933   1.1934    0.0138
  2  ->  4           0.713          0.0922  0.0643  0.0553   0.1253    0.0003
  2  ->  5           0.794          0.7627  0.3146  0.0801   0.8289    0.0134
  2  ->  6           0.800          0.1535  0.0747 -0.0331   0.1739    0.0006
  2  ->  7           0.922          0.9936  0.4675  0.1275   1.1054    0.0276
  2  ->  8           1.043          0.0881 -0.0896 -0.0813   0.1496    0.0006
  2  ->  9           1.190         -0.2286 -0.0109 -0.0281   0.2306    0.0016
  2  -> 10           1.241          0.4390  0.0782 -0.0396   0.4477    0.0061
  3  ->  4           0.319         -0.0568 -0.4507 -0.1456   0.4770    0.0018
  3  ->  5           0.400         -3.9390 -1.3580 -0.3577   4.1819    0.1713
  3  ->  6           0.406         -0.9164 -0.3046 -0.0218   0.9659    0.0093
  3  ->  7           0.527         -0.8337 -0.5459 -0.1119   1.0028    0.0130
  3  ->  8           0.649          0.0401 -0.0122  0.0264   0.0495    0.0000
  3  ->  9           0.796          0.4421  0.1331  0.0019   0.4618    0.0042
  3  -> 10           0.847          0.2271  0.1169  0.0151   0.2559    0.0014
  4  ->  5           0.081          1.5420 -0.1142 -0.0281   1.5465    0.0048
  4  ->  6           0.087          0.1580  0.0383 -0.1201   0.2021    0.0001
  4  ->  7           0.209         -1.4168  0.0445 -0.0588   1.4187    0.0103
  4  ->  8           0.330          0.3356 -0.0221 -0.0369   0.3383    0.0009
  4  ->  9           0.477         -2.0812 -0.7589 -0.2287   2.2270    0.0580
  4  -> 10           0.528          0.7779  0.4359  0.1467   0.9037    0.0106
  5  ->  6           0.006          0.3067 -0.0553  0.0120   0.3119    0.0000
  5  ->  7           0.127          4.4145 -0.4482 -0.0603   4.4376    0.0615
  5  ->  8           0.249         -0.7740  0.0684  0.0312   0.7776    0.0037
  5  ->  9           0.396          2.1054  0.9460  0.1773   2.3150    0.0520
  5  -> 10           0.447         -0.9019 -0.2351 -0.0750   0.9351    0.0096
  6  ->  7           0.122          1.4843 -0.1266  0.0241   1.4899    0.0066
  6  ->  8           0.243          2.8270 -0.1728 -0.0235   2.8323    0.0478
  6  ->  9           0.390          0.6790  0.3412 -0.0120   0.7600    0.0055
  6  -> 10           0.442         -0.4031 -0.1099  0.0419   0.4199    0.0019
  7  ->  8           0.121          0.0382 -0.0190  0.0063   0.0431    0.0000
  7  ->  9           0.268          0.6817 -0.0071  0.0066   0.6818    0.0031
  7  -> 10           0.320         -3.0697 -0.1187 -0.0446   3.0723    0.0739
  8  ->  9           0.147         -0.0041 -0.0388 -0.0409   0.0565    0.0000
  8  -> 10           0.198         -0.0244  0.0377  0.0163   0.0478    0.0000
  9  -> 10           0.051          0.8106  1.8681  0.3159   2.0608    0.0053
 
 SELECTING EXCITED STATE IROOT=   1 AT E=    -1204.1270433081
 AS THE STATE OF INTEREST.

 ..... DONE WITH TD-DFT EXCITATION ENERGIES .....
 CPU     0: STEP CPU TIME=   249.07 TOTAL CPU TIME=        314.4 (      5.2 MIN)
 TOTAL WALL CLOCK TIME=        338.4 SECONDS, CPU UTILIZATION IS    92.91%
              30739222  WORDS OF DYNAMIC MEMORY USED
 EXECUTION OF GAMESS TERMINATED NORMALLY Fri May 17 14:36:53 2024
 DDI: 263640 bytes (0.3 MB / 0 MWords) used by master data server.

 ----------------------------------------
 CPU timing information for all processes
 ========================================
 0: 312.785 + 1.866 = 314.651
 1: 320.69 + 1.256 = 321.326
 2: 321.489 + 1.309 = 322.799
 3: 323.490 + 1.248 = 324.738
 4: 323.875 + 1.299 = 325.175
 5: 324.971 + 1.389 = 326.360
 6: 305.495 + 1.287 = 306.783
 7: 318.176 + 1.374 = 319.550
 8: 324.170 + 1.271 = 325.441
 9: 326.676 + 1.359 = 328.36
 10: 324.243 + 1.311 = 325.554
 11: 324.240 + 1.202 = 325.443
 12: 325.689 + 1.157 = 326.846
 13: 324.240 + 1.294 = 325.535
 14: 324.440 + 1.319 = 325.760
 15: 304.650 + 1.290 = 305.941
 16: 0.176 + 0.33 = 0.209
 17: 0.109 + 0.42 = 0.151
 18: 0.133 + 0.36 = 0.169
 19: 0.104 + 0.59 = 0.163
 20: 0.100 + 0.33 = 0.133
 21: 0.127 + 0.21 = 0.148
 22: 0.143 + 0.12 = 0.156
 23: 0.77 + 0.35 = 0.112
 24: 0.98 + 0.35 = 0.133
 25: 0.93 + 0.58 = 0.152
 26: 0.124 + 0.51 = 0.175
 27: 0.113 + 0.23 = 0.136
 28: 0.90 + 0.29 = 0.119
 29: 0.87 + 0.47 = 0.135
 30: 0.84 + 0.40 = 0.124
 31: 0.91 + 0.48 = 0.140
 ----------------------------------------
else
unset echo
----- accounting info -----
Files used on the master node cn0310 were:
-rw-------. 1 lever046 lever046     2532 May 17 14:31 /tmp/gms_bzorig_b3lyp_nosmd_uvv.F05
-rw-------. 1 lever046 lever046 52428800 May 17 14:36 /tmp/gms_bzorig_b3lyp_nosmd_uvv.F10
-rw-------. 1 lever046 lever046  4763200 May 17 14:32 /tmp/gms_bzorig_b3lyp_nosmd_uvv.F22
-rw-------. 1 lever046 lever046  4763200 May 17 14:32 /tmp/gms_bzorig_b3lyp_nosmd_uvv.F22.001
-rw-------. 1 lever046 lever046  4763200 May 17 14:32 /tmp/gms_bzorig_b3lyp_nosmd_uvv.F22.002
-rw-------. 1 lever046 lever046  4763200 May 17 14:32 /tmp/gms_bzorig_b3lyp_nosmd_uvv.F22.003
-rw-------. 1 lever046 lever046  4763200 May 17 14:32 /tmp/gms_bzorig_b3lyp_nosmd_uvv.F22.004
-rw-------. 1 lever046 lever046  4763200 May 17 14:32 /tmp/gms_bzorig_b3lyp_nosmd_uvv.F22.005
-rw-------. 1 lever046 lever046  4763200 May 17 14:32 /tmp/gms_bzorig_b3lyp_nosmd_uvv.F22.006
-rw-------. 1 lever046 lever046  4763200 May 17 14:32 /tmp/gms_bzorig_b3lyp_nosmd_uvv.F22.007
-rw-------. 1 lever046 lever046  4763200 May 17 14:32 /tmp/gms_bzorig_b3lyp_nosmd_uvv.F22.008
-rw-------. 1 lever046 lever046  4763200 May 17 14:32 /tmp/gms_bzorig_b3lyp_nosmd_uvv.F22.009
-rw-------. 1 lever046 lever046  4763200 May 17 14:32 /tmp/gms_bzorig_b3lyp_nosmd_uvv.F22.010
-rw-------. 1 lever046 lever046  4763200 May 17 14:32 /tmp/gms_bzorig_b3lyp_nosmd_uvv.F22.011
-rw-------. 1 lever046 lever046  4763200 May 17 14:32 /tmp/gms_bzorig_b3lyp_nosmd_uvv.F22.012
-rw-------. 1 lever046 lever046  4763200 May 17 14:32 /tmp/gms_bzorig_b3lyp_nosmd_uvv.F22.013
-rw-------. 1 lever046 lever046  4763200 May 17 14:32 /tmp/gms_bzorig_b3lyp_nosmd_uvv.F22.014
-rw-------. 1 lever046 lever046  4763200 May 17 14:32 /tmp/gms_bzorig_b3lyp_nosmd_uvv.F22.015
-rw-------. 1 lever046 lever046        7 May 17 14:31 /tmp/gms_bzorig_b3lyp_nosmd_uvv.nodes.mpd
ls: No match.
ls: No match.
ls: No match.
Fri May 17 14:36:55 CDT 2024
0.363u 0.233s 5:47.61 0.1%	0+0k 5976+3128io 7pf+0w
