
                                 *****************
                                 * O   R   C   A *
                                 *****************

                                            #,                                       
                                            ###                                      
                                            ####                                     
                                            #####                                    
                                            ######                                   
                                           ########,                                 
                                     ,,################,,,,,                         
                               ,,#################################,,                 
                          ,,##########################################,,             
                       ,#########################################, ''#####,          
                    ,#############################################,,   '####,        
                  ,##################################################,,,,####,       
                ,###########''''           ''''###############################       
              ,#####''   ,,,,##########,,,,          '''####'''          '####       
            ,##' ,,,,###########################,,,                        '##       
           ' ,,###''''                  '''############,,,                           
         ,,##''                                '''############,,,,        ,,,,,,###''
      ,#''                                            '''#######################'''  
     '                                                          ''''####''''         
             ,#######,   #######,   ,#######,      ##                                
            ,#'     '#,  ##    ##  ,#'     '#,    #''#        ######   ,####,        
            ##       ##  ##   ,#'  ##            #'  '#       #        #'  '#        
            ##       ##  #######   ##           ,######,      #####,   #    #        
            '#,     ,#'  ##    ##  '#,     ,#' ,#      #,         ##   #,  ,#        
             '#######'   ##     ##  '#######'  #'      '#     #####' # '####'        



                  #######################################################
                  #                        -***-                        #
                  #          Department of theory and spectroscopy      #
                  #    Directorship and core code : Frank Neese         #
                  #        Max Planck Institute fuer Kohlenforschung    #
                  #                Kaiser Wilhelm Platz 1               #
                  #                 D-45470 Muelheim/Ruhr               #
                  #                      Germany                        #
                  #                                                     #
                  #                  All rights reserved                #
                  #                        -***-                        #
                  #######################################################


                         Program Version 5.0.1 -  RELEASE  -


 With contributions from (in alphabetic order):
   Daniel Aravena         : Magnetic Suceptibility
   Michael Atanasov       : Ab Initio Ligand Field Theory (pilot matlab implementation)
   Alexander A. Auer      : GIAO ZORA, VPT2 properties, NMR spectrum
   Ute Becker             : Parallelization
   Giovanni Bistoni       : ED, misc. LED, open-shell LED, HFLD
   Martin Brehm           : Molecular dynamics
   Dmytro Bykov           : SCF Hessian
   Vijay G. Chilkuri      : MRCI spin determinant printing, contributions to CSF-ICE
   Dipayan Datta          : RHF DLPNO-CCSD density
   Achintya Kumar Dutta   : EOM-CC, STEOM-CC
   Dmitry Ganyushin       : Spin-Orbit,Spin-Spin,Magnetic field MRCI
   Miquel Garcia          : C-PCM and meta-GGA Hessian, CC/C-PCM, Gaussian charge scheme
   Yang Guo               : DLPNO-NEVPT2, F12-NEVPT2, CIM, IAO-localization
   Andreas Hansen         : Spin unrestricted coupled pair/coupled cluster methods
   Benjamin Helmich-Paris : MC-RPA, TRAH-SCF, COSX integrals
   Lee Huntington         : MR-EOM, pCC
   Robert Izsak           : Overlap fitted RIJCOSX, COSX-SCS-MP3, EOM
   Marcus Kettner         : VPT2
   Christian Kollmar      : KDIIS, OOCD, Brueckner-CCSD(T), CCSD density, CASPT2, CASPT2-K
   Simone Kossmann        : Meta GGA functionals, TD-DFT gradient, OOMP2, MP2 Hessian
   Martin Krupicka        : Initial AUTO-CI
   Lucas Lang             : DCDCAS
   Marvin Lechner         : AUTO-CI (C++ implementation), FIC-MRCC
   Dagmar Lenk            : GEPOL surface, SMD
   Dimitrios Liakos       : Extrapolation schemes; Compound Job, initial MDCI parallelization
   Dimitrios Manganas     : Further ROCIS development; embedding schemes
   Dimitrios Pantazis     : SARC Basis sets
   Anastasios Papadopoulos: AUTO-CI, single reference methods and gradients
   Taras Petrenko         : DFT Hessian,TD-DFT gradient, ASA, ECA, R-Raman, ABS, FL, XAS/XES, NRVS
   Peter Pinski           : DLPNO-MP2, DLPNO-MP2 Gradient
   Christoph Reimann      : Effective Core Potentials
   Marius Retegan         : Local ZFS, SOC
   Christoph Riplinger    : Optimizer, TS searches, QM/MM, DLPNO-CCSD(T), (RO)-DLPNO pert. Triples
   Tobias Risthaus        : Range-separated hybrids, TD-DFT gradient, RPA, STAB
   Michael Roemelt        : Original ROCIS implementation
   Masaaki Saitow         : Open-shell DLPNO-CCSD energy and density
   Barbara Sandhoefer     : DKH picture change effects
   Avijit Sen             : IP-ROCIS
   Kantharuban Sivalingam : CASSCF convergence, NEVPT2, FIC-MRCI
   Bernardo de Souza      : ESD, SOC TD-DFT
   Georgi Stoychev        : AutoAux, RI-MP2 NMR, DLPNO-MP2 response
   Willem Van den Heuvel  : Paramagnetic NMR
   Boris Wezisla          : Elementary symmetry handling
   Frank Wennmohs         : Technical directorship


 We gratefully acknowledge several colleagues who have allowed us to
 interface, adapt or use parts of their codes:
   Stefan Grimme, W. Hujo, H. Kruse, P. Pracht,  : VdW corrections, initial TS optimization,
                  C. Bannwarth, S. Ehlert          DFT functionals, gCP, sTDA/sTD-DF
   Ed Valeev, F. Pavosevic, A. Kumar             : LibInt (2-el integral package), F12 methods
   Garnet Chan, S. Sharma, J. Yang, R. Olivares  : DMRG
   Ulf Ekstrom                                   : XCFun DFT Library
   Mihaly Kallay                                 : mrcc  (arbitrary order and MRCC methods)
   Jiri Pittner, Ondrej Demel                    : Mk-CCSD
   Frank Weinhold                                : gennbo (NPA and NBO analysis)
   Christopher J. Cramer and Donald G. Truhlar   : smd solvation model
   Lars Goerigk                                  : TD-DFT with DH, B97 family of functionals
   V. Asgeirsson, H. Jonsson                     : NEB implementation
   FAccTs GmbH                                   : IRC, NEB, NEB-TS, DLPNO-Multilevel, CI-OPT
                                                   MM, QMMM, 2- and 3-layer-ONIOM, Crystal-QMMM,
                                                   LR-CPCM, SF, NACMEs, symmetry and pop. for TD-DFT,
                                                   nearIR, NL-DFT gradient (VV10), updates on ESD,
                                                   ML-optimized integration grids
   S Lehtola, MJT Oliveira, MAL Marques          : LibXC Library
   Liviu Ungur et al                             : ANISO software


 Your calculation uses the libint2 library for the computation of 2-el integrals
 For citations please refer to: http://libint.valeyev.net

 Your ORCA version has been built with support for libXC version: 5.1.0
 For citations please refer to: https://tddft.org/programs/libxc/

 This ORCA versions uses:
   CBLAS   interface :  Fast vector & matrix operations
   LAPACKE interface :  Fast linear algebra routines
   SCALAPACK package :  Parallel linear algebra routines
   Shared memory     :  Shared parallel matrices
   BLAS/LAPACK       :  OpenBLAS 0.3.15  USE64BITINT DYNAMIC_ARCH NO_AFFINITY Zen SINGLE_THREADED
        Core in use  :  Zen
   Copyright (c) 2011-2014, The OpenBLAS Project


================================================================================

----- Orbital basis set information -----
Your calculation utilizes the basis: 6-31+G*
   H-He, Li-Ne : W. J. Hehre, R. Ditchfield and J.A. Pople, J. Chem. Phys. 56, 2257 (1972).
                 Note: He and Ne are unpublished basis sets taken from the Gaussian program.
                 Note: Li and B from J. D. Dill and J. A. Pople, J. Chem. Phys. 62, 2921 (1975).
   Na - Ar     : M. M. Francl, W. J. Pietro, W. J. Hehre, J. S. Binkley, M. S. Gordon, 
                 D. J. DeFrees and J. A. Pople, J. Chem. Phys. 77, 3654 (1982).
   K - Zn      : V. A. Rassolov, J. A. Pople, M. A. Ratner, and T. L. Windus, J. Chem. Phys. 109, 1223 (1998).
   Additional Pol./Diff. from the 6-311G equivalent.

----- AuxJ basis set information -----
Your calculation utilizes the auxiliary basis: def2/J
   F. Weigend, Phys. Chem. Chem. Phys. 8, 1057 (2006).

================================================================================
                                        WARNINGS
                       Please study these warnings very carefully!
================================================================================


WARNING: The environment variable RSH_COMMAND is not set!
  ===> : All Displacements for the Numerical Hessian calculation
         will be started on localhost

WARNING: Geometry Optimization
  ===> : Switching off AutoStart
         For restart on a previous wavefunction, please use MOREAD

INFO   : the flag for use of the SHARK integral package has been found!

================================================================================
                                       INPUT FILE
================================================================================
NAME = orc_bzorig_b3lyp_meth_ram.inp
|  1> !B3LYP 6-31+G* opt numfreq 
|  2> %pal nprocs 20 end
|  3> %elprop Polar 1 end
|  4> * xyz 0 1
|  5>  O       2.7027208681   2.7047627900   0.7041309512
|  6>  O       0.8076913745   2.2792751922  -0.3956787552
|  7>  N       0.0958971093  -0.4976522850  -0.4216453733
|  8>  C       1.4820652795  -0.6213805507  -0.1959465952
|  9>  C       2.3331553345   0.4669332785   0.0526449386
| 10>  C      -2.1963640136  -0.2593787112   0.2586594958
| 11>  C       2.0262288421  -1.9050810477  -0.2818742301
| 12>  C       3.7038699106   0.2328838907   0.2354909400
| 13>  C      -0.7494189837  -0.3624798118   0.5079809963
| 14>  C       3.3834336714  -2.1150355257  -0.1071197810
| 15>  C       4.2325165183  -1.0413713447   0.1535943777
| 16>  C      -3.0653368062  -0.2134375867   1.3456260242
| 17>  C      -2.7156250861  -0.2115908530  -1.0360396377
| 18>  C      -4.4410550694  -0.1292510847   1.1535351497
| 19>  C      -4.0847061957  -0.1254600580  -1.2411180778
| 20>  C      -4.9212247833  -0.0873765379  -0.1387736357
| 21>  C       1.8488630155   1.8591866936   0.0856850034
| 22>  H       1.3695211518  -2.7243884086  -0.4868590650
| 23>  H       4.3458708822   1.0639931263   0.4297627506
| 24>  H      -0.4486750924  -0.3288965217   1.5436579988
| 25>  H       3.7758822534  -3.1092619710  -0.1742334314
| 26>  H       5.2827673491  -1.1972262418   0.2863112346
| 27>  H      -2.6808713180  -0.2468699778   2.3452227558
| 28>  H      -2.0492408449  -0.2409618742  -1.8716315742
| 29>  H      -5.1095837188  -0.0993943532   1.9869264369
| 30>  H      -4.4868476539  -0.0886786465  -2.2310895097
| 31>  CL     -6.7121008720   0.0222412971  -0.4054138792
| 32>  H       2.4110668777   3.6078171233   0.6852944922
| 33> *
| 34> 
| 35> 
| 36>                          ****END OF INPUT****
================================================================================

                       *****************************
                       * Geometry Optimization Run *
                       *****************************

Geometry optimization settings:
Update method            Update   .... BFGS
Choice of coordinates    CoordSys .... Z-matrix Internals
Initial Hessian          InHess   .... Almoef's Model

Convergence Tolerances:
Energy Change            TolE     ....  5.0000e-06 Eh
Max. Gradient            TolMAXG  ....  3.0000e-04 Eh/bohr
RMS Gradient             TolRMSG  ....  1.0000e-04 Eh/bohr
Max. Displacement        TolMAXD  ....  4.0000e-03 bohr
RMS Displacement         TolRMSD  ....  2.0000e-03 bohr
Strict Convergence                ....  False
------------------------------------------------------------------------------
                        ORCA OPTIMIZATION COORDINATE SETUP
------------------------------------------------------------------------------

The optimization will be done in new redundant internal coordinates
Making redundant internal coordinates   ...  (new redundants) done
Evaluating the initial hessian          ...  (Almloef) done
Evaluating the coordinates              ...  done
Calculating the B-matrix                .... done
Calculating the G-matrix                .... done
Diagonalizing the G-matrix              .... done
Small eigenvalue found = 4.865e-03
Small eigenvalue found = 6.557e-03
Small eigenvalue found = 1.519e-02
Small eigenvalue found = 2.407e-02
The first mode is                       ....   57
The number of degrees of freedom        ....   78

    -----------------------------------------------------------------
                    Redundant Internal Coordinates


    -----------------------------------------------------------------
         Definition                    Initial Value    Approx d2E/dq
    -----------------------------------------------------------------
      1. B(C   3,N   2)                  1.4099         0.520220   
      2. B(C   4,C   3)                  1.4038         0.593970   
      3. B(C   6,C   3)                  1.3969         0.609114   
      4. B(C   7,C   4)                  1.4025         0.596704   
      5. B(C   8,C   5)                  1.4719         0.462486   
      6. B(C   8,N   2)                  1.2637         0.889850   
      7. B(C   9,C   6)                  1.3844         0.637731   
      8. B(C  10,C   9)                  1.3934         0.616956   
      9. B(C  10,C   7)                  1.3820         0.643451   
     10. B(C  11,C   5)                  1.3924         0.619359   
     11. B(C  12,C   5)                  1.3958         0.611702   
     12. B(C  13,C  11)                  1.3916         0.621105   
     13. B(C  14,C  12)                  1.3870         0.631645   
     14. B(C  15,C  14)                  1.3843         0.637941   
     15. B(C  15,C  13)                  1.3793         0.649923   
     16. B(C  16,C   4)                  1.4744         0.458148   
     17. B(C  16,O   1)                  1.2216         1.038965   
     18. B(C  16,O   0)                  1.3515         0.644618   
     19. B(H  17,C   6)                  1.0698         0.387788   
     20. B(H  18,C   7)                  1.0680         0.390395   
     21. B(H  19,C   8)                  1.0790         0.374975   
     22. B(H  20,C   9)                  1.0710         0.386155   
     23. B(H  21,C  10)                  1.0700         0.387533   
     24. B(H  22,C  11)                  1.0715         0.385415   
     25. B(H  23,C  12)                  1.0692         0.388724   
     26. B(H  24,C  13)                  1.0688         0.389246   
     27. B(H  25,C  14)                  1.0692         0.388744   
     28. B(Cl 26,C  15)                  1.8139         0.295378   
     29. B(H  27,O   0)                  0.9492         0.541060   
     30. A(C  16,O   0,H  27)          113.0820         0.375170   
     31. A(C   3,N   2,C   8)          123.3180         0.442994   
     32. A(N   2,C   3,C   4)          123.8079         0.414724   
     33. A(C   4,C   3,C   6)          119.1540         0.429365   
     34. A(N   2,C   3,C   6)          116.9876         0.416585   
     35. A(C   7,C   4,C  16)          118.4024         0.408448   
     36. A(C   3,C   4,C  16)          122.4720         0.408116   
     37. A(C   3,C   4,C   7)          119.0943         0.427783   
     38. A(C   8,C   5,C  11)          118.9204         0.411841   
     39. A(C  11,C   5,C  12)          119.3944         0.432935   
     40. A(C   8,C   5,C  12)          121.6847         0.410934   
     41. A(C   3,C   6,H  17)          118.4521         0.356297   
     42. A(C   9,C   6,H  17)          120.6516         0.359089   
     43. A(C   3,C   6,C   9)          120.8963         0.434886   
     44. A(C   4,C   7,H  18)          118.7728         0.355459   
     45. A(C   4,C   7,C  10)          121.3317         0.433975   
     46. A(C  10,C   7,H  18)          119.8912         0.360046   
     47. A(N   2,C   8,H  19)          121.5323         0.375657   
     48. A(N   2,C   8,C   5)          122.7146         0.436553   
     49. A(C   5,C   8,H  19)          115.7482         0.338242   
     50. A(C   6,C   9,H  20)          119.4793         0.358832   
     51. A(C  10,C   9,H  20)          120.2471         0.356816   
     52. A(C   6,C   9,C  10)          120.2736         0.435889   
     53. A(C   7,C  10,C   9)          119.2385         0.436590   
     54. A(C   9,C  10,H  21)          120.6016         0.357032   
     55. A(C   7,C  10,H  21)          120.1597         0.359595   
     56. A(C   5,C  11,C  13)          120.7440         0.434124   
     57. A(C  13,C  11,H  22)          119.0366         0.357107   
     58. A(C   5,C  11,H  22)          120.2189         0.356936   
     59. A(C   5,C  12,C  14)          120.4300         0.434467   
     60. A(C  14,C  12,H  23)          120.0897         0.358651   
     61. A(C   5,C  12,H  23)          119.4803         0.356700   
     62. A(C  15,C  13,H  24)          120.7954         0.360480   
     63. A(C  11,C  13,H  24)          120.8239         0.357707   
     64. A(C  11,C  13,C  15)          118.3806         0.437908   
     65. A(C  15,C  14,H  25)          120.6030         0.359260   
     66. A(C  12,C  14,H  25)          120.6836         0.358654   
     67. A(C  12,C  14,C  15)          118.7133         0.437767   
     68. A(C  14,C  15,Cl 26)          118.7641         0.399584   
     69. A(C  13,C  15,Cl 26)          118.8993         0.400895   
     70. A(C  13,C  15,C  14)          122.3366         0.440026   
     71. A(O   1,C  16,C   4)          126.5728         0.448189   
     72. A(O   0,C  16,C   4)          113.1737         0.411406   
     73. A(O   0,C  16,O   1)          120.2416         0.473857   
     74. D(C   6,C   3,N   2,C   8)    102.0021         0.019487   
     75. D(C   4,C   3,N   2,C   8)    -80.6107         0.019487   
     76. D(C   7,C   4,C   3,N   2)   -178.6334         0.024295   
     77. D(C  16,C   4,C   3,N   2)     -0.7042         0.024295   
     78. D(C   7,C   4,C   3,C   6)     -1.2994         0.024295   
     79. D(C  16,C   4,C   3,C   6)    176.6298         0.024295   
     80. D(C   9,C   6,C   3,N   2)    178.4152         0.025620   
     81. D(C   9,C   6,C   3,C   4)      0.9010         0.025620   
     82. D(H  17,C   6,C   3,N   2)     -1.5450         0.025620   
     83. D(H  17,C   6,C   3,C   4)   -179.0592         0.025620   
     84. D(H  18,C   7,C   4,C  16)      2.3253         0.024531   
     85. D(H  18,C   7,C   4,C   3)   -179.6607         0.024531   
     86. D(C  10,C   7,C   4,C  16)   -176.9266         0.024531   
     87. D(C  10,C   7,C   4,C   3)      1.0873         0.024531   
     88. D(C   5,C   8,N   2,C   3)   -178.8376         0.062709   
     89. D(H  19,C   8,C   5,C  12)    176.2441         0.014569   
     90. D(H  19,C   8,C   5,C  11)     -3.9860         0.014569   
     91. D(N   2,C   8,C   5,C  12)     -4.5505         0.014569   
     92. D(N   2,C   8,C   5,C  11)    175.2194         0.014569   
     93. D(H  19,C   8,N   2,C   3)      0.3228         0.062709   
     94. D(H  20,C   9,C   6,H  17)     -0.2671         0.028244   
     95. D(H  20,C   9,C   6,C   3)    179.7736         0.028244   
     96. D(C  10,C   9,C   6,H  17)    179.7107         0.028244   
     97. D(C  10,C   9,C   6,C   3)     -0.2486         0.028244   
     98. D(C   7,C  10,C   9,H  20)    179.9848         0.026323   
     99. D(C   7,C  10,C   9,C   6)      0.0072         0.026323   
    100. D(H  21,C  10,C   7,H  18)      0.1248         0.028787   
    101. D(H  21,C  10,C   7,C   4)    179.3685         0.028787   
    102. D(H  21,C  10,C   9,C   6)   -179.7957         0.026323   
    103. D(C   9,C  10,C   7,H  18)   -179.6791         0.028787   
    104. D(C   9,C  10,C   7,C   4)     -0.4354         0.028787   
    105. D(H  21,C  10,C   9,H  20)      0.1819         0.026323   
    106. D(H  22,C  11,C   5,C  12)   -179.8531         0.026541   
    107. D(H  22,C  11,C   5,C   8)      0.3716         0.026541   
    108. D(C  13,C  11,C   5,C  12)      0.4088         0.026541   
    109. D(C  13,C  11,C   5,C   8)   -179.3664         0.026541   
    110. D(H  23,C  12,C   5,C  11)    179.6414         0.025851   
    111. D(H  23,C  12,C   5,C   8)     -0.5898         0.025851   
    112. D(C  14,C  12,C   5,C  11)     -0.3015         0.025851   
    113. D(C  14,C  12,C   5,C   8)    179.4673         0.025851   
    114. D(H  24,C  13,C  11,H  22)     -0.0841         0.026700   
    115. D(H  24,C  13,C  11,C   5)    179.6570         0.026700   
    116. D(C  15,C  13,C  11,H  22)   -179.9840         0.026700   
    117. D(C  15,C  13,C  11,C   5)     -0.2429         0.026700   
    118. D(H  25,C  14,C  12,H  23)      0.0618         0.027672   
    119. D(H  25,C  14,C  12,C   5)   -179.9956         0.027672   
    120. D(C  15,C  14,C  12,H  23)   -179.9091         0.027672   
    121. D(C  15,C  14,C  12,C   5)      0.0335         0.027672   
    122. D(Cl 26,C  15,C  14,H  25)      0.1380         0.028263   
    123. D(C  13,C  15,C  14,H  25)   -179.8340         0.028263   
    124. D(C  13,C  15,C  14,C  12)      0.1369         0.028263   
    125. D(Cl 26,C  15,C  13,H  24)      0.0949         0.029410   
    126. D(Cl 26,C  15,C  13,C  11)    179.9948         0.029410   
    127. D(Cl 26,C  15,C  14,C  12)   -179.8911         0.028263   
    128. D(C  14,C  15,C  13,H  24)   -179.9331         0.029410   
    129. D(C  14,C  15,C  13,C  11)     -0.0332         0.029410   
    130. D(O   1,C  16,C   4,C   7)    158.7361         0.014300   
    131. D(O   1,C  16,C   4,C   3)    -19.2068         0.014300   
    132. D(O   0,C  16,C   4,C   7)    -20.0002         0.014300   
    133. D(O   0,C  16,C   4,C   3)    162.0569         0.014300   
    134. D(C   4,C  16,O   0,H  27)    177.0229         0.030668   
    135. D(O   1,C  16,O   0,H  27)     -1.8024         0.030668   
    -----------------------------------------------------------------

Number of atoms                         .... 28
Number of degrees of freedom            .... 135

         *************************************************************
         *                GEOMETRY OPTIMIZATION CYCLE   1            *
         *************************************************************
---------------------------------
CARTESIAN COORDINATES (ANGSTROEM)
---------------------------------
  O      2.702721    2.704763    0.704131
  O      0.807691    2.279275   -0.395679
  N      0.095897   -0.497652   -0.421645
  C      1.482065   -0.621381   -0.195947
  C      2.333155    0.466933    0.052645
  C     -2.196364   -0.259379    0.258659
  C      2.026229   -1.905081   -0.281874
  C      3.703870    0.232884    0.235491
  C     -0.749419   -0.362480    0.507981
  C      3.383434   -2.115036   -0.107120
  C      4.232517   -1.041371    0.153594
  C     -3.065337   -0.213438    1.345626
  C     -2.715625   -0.211591   -1.036040
  C     -4.441055   -0.129251    1.153535
  C     -4.084706   -0.125460   -1.241118
  C     -4.921225   -0.087377   -0.138774
  C      1.848863    1.859187    0.085685
  H      1.369521   -2.724388   -0.486859
  H      4.345871    1.063993    0.429763
  H     -0.448675   -0.328897    1.543658
  H      3.775882   -3.109262   -0.174233
  H      5.282767   -1.197226    0.286311
  H     -2.680871   -0.246870    2.345223
  H     -2.049241   -0.240962   -1.871632
  H     -5.109584   -0.099394    1.986926
  H     -4.486848   -0.088679   -2.231090
  Cl    -6.712101    0.022241   -0.405414
  H      2.411067    3.607817    0.685294

----------------------------
CARTESIAN COORDINATES (A.U.)
----------------------------
  NO LB      ZA    FRAG     MASS         X           Y           Z
   0 O     8.0000    0    15.999    5.107402    5.111261    1.330615
   1 O     8.0000    0    15.999    1.526315    4.307206   -0.747724
   2 N     7.0000    0    14.007    0.181219   -0.940427   -0.796794
   3 C     6.0000    0    12.011    2.800697   -1.174239   -0.370285
   4 C     6.0000    0    12.011    4.409025    0.882376    0.099485
   5 C     6.0000    0    12.011   -4.150526   -0.490155    0.488796
   6 C     6.0000    0    12.011    3.829018   -3.600081   -0.532665
   7 C     6.0000    0    12.011    6.999300    0.440087    0.445013
   8 C     6.0000    0    12.011   -1.416197   -0.684988    0.959945
   9 C     6.0000    0    12.011    6.393763   -3.996838   -0.202427
  10 C     6.0000    0    12.011    7.998297   -1.967907    0.290251
  11 C     6.0000    0    12.011   -5.792647   -0.403339    2.542865
  12 C     6.0000    0    12.011   -5.131788   -0.399849   -1.957831
  13 C     6.0000    0    12.011   -8.392378   -0.244249    2.179866
  14 C     6.0000    0    12.011   -7.718976   -0.237085   -2.345373
  15 C     6.0000    0    12.011   -9.299767   -0.165118   -0.262244
  16 C     6.0000    0    12.011    3.493845    3.513354    0.161921
  17 H     1.0000    0     1.008    2.588020   -5.148348   -0.920030
  18 H     1.0000    0     1.008    8.212506    2.010656    0.812134
  19 H     1.0000    0     1.008   -0.847873   -0.621524    2.917091
  20 H     1.0000    0     1.008    7.135383   -5.875654   -0.329253
  21 H     1.0000    0     1.008    9.982984   -2.262430    0.541050
  22 H     1.0000    0     1.008   -5.066113   -0.466517    4.431829
  23 H     1.0000    0     1.008   -3.872504   -0.455352   -3.536871
  24 H     1.0000    0     1.008   -9.655714   -0.187828    3.754747
  25 H     1.0000    0     1.008   -8.478913   -0.167578   -4.216148
  26 Cl   17.0000    0    35.453  -12.684032    0.042030   -0.766121
  27 H     1.0000    0     1.008    4.556256    6.817786    1.295019

--------------------------------
INTERNAL COORDINATES (ANGSTROEM)
--------------------------------
 O      0   0   0     0.000000000000     0.00000000     0.00000000
 O      1   0   0     2.231985185387     0.00000000     0.00000000
 N      2   1   0     2.866819065594   113.57327986     0.00000000
 C      3   2   1     1.409861985531    80.76076631   336.99419495
 C      4   3   2     1.403773138091   123.80788207     7.13918528
 C      3   2   1     2.402925314372    97.94587751   131.05876624
 C      4   3   2     1.396919649550   116.98761228   189.75192484
 C      5   4   3     1.402522807405   119.09425940   181.36656295
 C      3   2   1     1.263738929388    93.19923024   100.24335248
 C      7   4   3     1.384422243749   120.89629669   178.41516901
 C      8   5   4     1.381991565710   121.33173137     1.08730280
 C      6   3   2     1.392379450818   145.04845780   269.73559098
 C      6   3   2     1.395765591742    95.49003563    93.16212663
 C     12   6   3     1.391613096693   120.74395092   184.32436145
 C     13   6   3     1.387032359069   120.43000064   177.44620572
 C     14  12   6     1.379267352125   118.38059229   359.75710158
 C      2   1   3     1.221566126238    31.54105031   343.10396142
 H      7   4   3     1.069835653109   118.45207389   358.45499751
 H      8   5   4     1.068011865772   118.77281759   180.33925672
 H      9   3   2     1.078981732485   121.53228418   279.28000280
 H     10   7   4     1.070983826263   119.47929529   179.77357382
 H     11   8   5     1.070014635718   120.15966298   179.36845502
 H     12   6   3     1.071505978619   120.21889429     4.06239977
 H     13   6   3     1.069179357334   119.48031905   357.38909869
 H     14  12   6     1.068813836487   120.82394291   179.65702462
 H     15  13   6     1.069165123175   120.68364463   180.00435194
 Cl    16  14  12     1.813932262870   118.89929831   179.99484616
 H      1   2   3     0.949170159242    84.87704354   195.23135298

---------------------------
INTERNAL COORDINATES (A.U.)
---------------------------
 O      0   0   0     0.000000000000     0.00000000     0.00000000
 O      1   0   0     4.217840735351     0.00000000     0.00000000
 N      2   1   0     5.417502909477   113.57327986     0.00000000
 C      3   2   1     2.664253039279    80.76076631   336.99419495
 C      4   3   2     2.652746785147   123.80788207     7.13918528
 C      3   2   1     4.540870764430    97.94587751   131.05876624
 C      4   3   2     2.639795568743   116.98761228   189.75192484
 C      5   4   3     2.650384002573   119.09425940   181.36656295
 C      3   2   1     2.388120481319    93.19923024   100.24335248
 C      7   4   3     2.616178894395   120.89629669   178.41516901
 C      8   5   4     2.611585578581   121.33173137     1.08730280
 C      6   3   2     2.631215836546   145.04845780   269.73559098
 C      6   3   2     2.637614715543    95.49003563    93.16212663
 C     12   6   3     2.629767637128   120.74395092   184.32436145
 C     13   6   3     2.621111297527   120.43000064   177.44620572
 C     14  12   6     2.606437560975   118.38059229   359.75710158
 C      2   1   3     2.308425433065    31.54105031   343.10396142
 H      7   4   3     2.021696392681   118.45207389   358.45499751
 H      8   5   4     2.018249934086   118.77281759   180.33925672
 H      9   3   2     2.038979977900   121.53228418   279.28000280
 H     10   7   4     2.023866125497   119.47929529   179.77357382
 H     11   8   5     2.022034620795   120.15966298   179.36845502
 H     12   6   3     2.024852850450   120.21889429     4.06239977
 H     13   6   3     2.020456173404   119.48031905   357.38909869
 H     14  12   6     2.019765439105   120.82394291   179.65702462
 H     15  13   6     2.020429274740   120.68364463   180.00435194
 Cl    16  14  12     3.427835202309   118.89929831   179.99484616
 H      1   2   3     1.793671655458    84.87704354   195.23135298

---------------------
BASIS SET INFORMATION
---------------------
There are 5 groups of distinct atoms

 Group   1 Type O   : 11s5p1d contracted to 4s3p1d pattern {6311/311/1}
 Group   2 Type N   : 11s5p1d contracted to 4s3p1d pattern {6311/311/1}
 Group   3 Type C   : 11s5p1d contracted to 4s3p1d pattern {6311/311/1}
 Group   4 Type H   : 4s contracted to 2s pattern {31}
 Group   5 Type Cl  : 17s11p1d contracted to 5s4p1d pattern {66311/6311/1}

Atom   0O    basis set group =>   1
Atom   1O    basis set group =>   1
Atom   2N    basis set group =>   2
Atom   3C    basis set group =>   3
Atom   4C    basis set group =>   3
Atom   5C    basis set group =>   3
Atom   6C    basis set group =>   3
Atom   7C    basis set group =>   3
Atom   8C    basis set group =>   3
Atom   9C    basis set group =>   3
Atom  10C    basis set group =>   3
Atom  11C    basis set group =>   3
Atom  12C    basis set group =>   3
Atom  13C    basis set group =>   3
Atom  14C    basis set group =>   3
Atom  15C    basis set group =>   3
Atom  16C    basis set group =>   3
Atom  17H    basis set group =>   4
Atom  18H    basis set group =>   4
Atom  19H    basis set group =>   4
Atom  20H    basis set group =>   4
Atom  21H    basis set group =>   4
Atom  22H    basis set group =>   4
Atom  23H    basis set group =>   4
Atom  24H    basis set group =>   4
Atom  25H    basis set group =>   4
Atom  26Cl   basis set group =>   5
Atom  27H    basis set group =>   4
---------------------------------
AUXILIARY/J BASIS SET INFORMATION
---------------------------------
There are 5 groups of distinct atoms

 Group   1 Type O   : 12s5p4d2f1g contracted to 6s4p3d1f1g pattern {711111/2111/211/2/1}
 Group   2 Type N   : 12s5p4d2f1g contracted to 6s4p3d1f1g pattern {711111/2111/211/2/1}
 Group   3 Type C   : 12s5p4d2f1g contracted to 6s4p3d1f1g pattern {711111/2111/211/2/1}
 Group   4 Type H   : 5s2p1d contracted to 3s1p1d pattern {311/2/1}
 Group   5 Type Cl  : 14s5p5d2f1g contracted to 8s4p3d1f1g pattern {71111111/2111/311/2/1}

Atom   0O    basis set group =>   1
Atom   1O    basis set group =>   1
Atom   2N    basis set group =>   2
Atom   3C    basis set group =>   3
Atom   4C    basis set group =>   3
Atom   5C    basis set group =>   3
Atom   6C    basis set group =>   3
Atom   7C    basis set group =>   3
Atom   8C    basis set group =>   3
Atom   9C    basis set group =>   3
Atom  10C    basis set group =>   3
Atom  11C    basis set group =>   3
Atom  12C    basis set group =>   3
Atom  13C    basis set group =>   3
Atom  14C    basis set group =>   3
Atom  15C    basis set group =>   3
Atom  16C    basis set group =>   3
Atom  17H    basis set group =>   4
Atom  18H    basis set group =>   4
Atom  19H    basis set group =>   4
Atom  20H    basis set group =>   4
Atom  21H    basis set group =>   4
Atom  22H    basis set group =>   4
Atom  23H    basis set group =>   4
Atom  24H    basis set group =>   4
Atom  25H    basis set group =>   4
Atom  26Cl   basis set group =>   5
Atom  27H    basis set group =>   4


           ************************************************************
           *        Program running with 20 parallel MPI-processes    *
           *              working on a common directory               *
           ************************************************************
------------------------------------------------------------------------------
                           ORCA GTO INTEGRAL CALCULATION
                           -- RI-GTO INTEGRALS CHOSEN --
------------------------------------------------------------------------------
------------------------------------------------------------------------------
                   ___                                                        
                  /   \      - P O W E R E D   B Y -                         
                 /     \                                                     
                 |  |  |   _    _      __       _____    __    __             
                 |  |  |  | |  | |    /  \     |  _  \  |  |  /  |          
                  \  \/   | |  | |   /    \    | | | |  |  | /  /          
                 / \  \   | |__| |  /  /\  \   | |_| |  |  |/  /          
                |  |  |   |  __  | /  /__\  \  |    /   |      \           
                |  |  |   | |  | | |   __   |  |    \   |  |\   \          
                \     /   | |  | | |  |  |  |  | |\  \  |  | \   \       
                 \___/    |_|  |_| |__|  |__|  |_| \__\ |__|  \__/        
                                                                              
                      - O R C A' S   B I G   F R I E N D -                    
                                      &                                       
                       - I N T E G R A L  F E E D E R -                       
                                                                              
 v1 FN, 2020, v2 2021                                                         
------------------------------------------------------------------------------


Reading SHARK input file orc_bzorig_b3lyp_meth_ram.SHARKINP.tmp ... ok
----------------------
SHARK INTEGRAL PACKAGE
----------------------

Number of atoms                             ...     28
Number of basis functions                   ...    348
Number of shells                            ...    166
Maximum angular momentum                    ...      2
Integral batch strategy                     ... SHARK/LIBINT Hybrid
RI-J (if used) integral strategy            ... SPLIT-RIJ (Revised 2003 algorithm where possible)
Printlevel                                  ...      1
Contraction scheme used                     ... SEGMENTED contraction
Coulomb Range Separation                    ... NOT USED
Exchange Range Separation                   ... NOT USED
Finite Nucleus Model                        ... NOT USED
Auxiliary Coulomb fitting basis             ... AVAILABLE
   # of basis functions in Aux-J            ...    994
   # of shells in Aux-J                     ...    322
   Maximum angular momentum in Aux-J        ...      4
Auxiliary J/K fitting basis                 ... NOT available
Auxiliary Correlation fitting basis         ... NOT available
Auxiliary 'external' fitting basis          ... NOT available
Integral threshold                          ...     2.500000e-11
Primitive cut-off                           ...     2.500000e-12
Primitive pair pre-selection threshold      ...     2.500000e-12

Calculating pre-screening integrals         ... done (  0.1 sec) Dimension = 166
Organizing shell pair data                  ... done (  0.9 sec)
Shell pair information
Total number of shell pairs                 ...     13861
Shell pairs after pre-screening             ...     11482
Total number of primitive shell pairs       ...     64699
Primitive shell pairs kept                  ...     33322
          la=0 lb=0:   3468 shell pairs
          la=1 lb=0:   4461 shell pairs
          la=1 lb=1:   1425 shell pairs
          la=2 lb=0:   1192 shell pairs
          la=2 lb=1:    826 shell pairs
          la=2 lb=2:    110 shell pairs

Calculating one electron integrals          ... done (  0.0 sec)
Calculating RI/J V-Matrix + Cholesky decomp.... done (  0.5 sec)
Calculating Nuclear repulsion               ... done (  0.0 sec) ENN=   1250.330744532758 Eh

SHARK setup successfully completed in   1.9 seconds

Maximum memory used throughout the entire GTOINT-calculation: 21.3 MB


           ************************************************************
           *        Program running with 20 parallel MPI-processes    *
           *              working on a common directory               *
           ************************************************************
-------------------------------------------------------------------------------
                                 ORCA SCF
-------------------------------------------------------------------------------

------------
SCF SETTINGS
------------
Hamiltonian:
 Density Functional     Method          .... DFT(GTOs)
 Exchange Functional    Exchange        .... B88
   X-Alpha parameter    XAlpha          ....  0.666667
   Becke's b parameter  XBeta           ....  0.004200
 Correlation Functional Correlation     .... LYP
 LDA part of GGA corr.  LDAOpt          .... VWN-5
 Gradients option       PostSCFGGA      .... off
 Hybrid DFT is turned on
   Fraction HF Exchange ScalHFX         ....  0.200000
   Scaling of DF-GGA-X  ScalDFX         ....  0.720000
   Scaling of DF-GGA-C  ScalDFC         ....  0.810000
   Scaling of DF-LDA-C  ScalLDAC        ....  1.000000
   Perturbative correction              ....  0.000000
   Density functional embedding theory  .... OFF
   NL short-range parameter             ....  4.800000
 RI-approximation to the Coulomb term is turned on
   Number of AuxJ basis functions       .... 994
   RIJ-COSX (HFX calculated with COS-X)).... on


General Settings:
 Integral files         IntName         .... orc_bzorig_b3lyp_meth_ram
 Hartree-Fock type      HFTyp           .... RHF
 Total Charge           Charge          ....    0
 Multiplicity           Mult            ....    1
 Number of Electrons    NEL             ....  134
 Basis Dimension        Dim             ....  348
 Nuclear Repulsion      ENuc            ....   1250.3307445328 Eh

Convergence Acceleration:
 DIIS                   CNVDIIS         .... on
   Start iteration      DIISMaxIt       ....    12
   Startup error        DIISStart       ....  0.200000
   # of expansion vecs  DIISMaxEq       ....     5
   Bias factor          DIISBfac        ....   1.050
   Max. coefficient     DIISMaxC        ....  10.000
 Trust-Rad. Augm. Hess. CNVTRAH         .... auto
   Auto Start mean grad. ratio tolernc. ....  1.125000
   Auto Start start iteration           ....    20
   Auto Start num. interpolation iter.  ....    10
   Max. Number of Micro iterations      ....    16
   Max. Number of Macro iterations      .... Maxiter - #DIIS iter
   Number of Davidson start vectors     ....     2
   Converg. threshold I  (grad. norm)   ....   1.000e-05
   Converg. threshold II (energy diff.) ....   1.000e-08
   Grad. Scal. Fac. for Micro threshold ....   0.100
   Minimum threshold for Micro iter.    ....   0.010
   NR start threshold (gradient norm)   ....   0.001
   Initial trust radius                 ....   0.400
   Minimum AH scaling param. (alpha)    ....   1.000
   Maximum AH scaling param. (alpha)    .... 1000.000
   Orbital update algorithm             .... Taylor
   White noise on init. David. guess    .... on
   Maximum white noise                  ....   0.010
   Quad. conv. algorithm                .... NR
 SOSCF                  CNVSOSCF        .... on
   Start iteration      SOSCFMaxIt      ....   150
   Startup grad/error   SOSCFStart      ....  0.003300
 Level Shifting         CNVShift        .... on
   Level shift para.    LevelShift      ....    0.2500
   Turn off err/grad.   ShiftErr        ....    0.0010
 Zerner damping         CNVZerner       .... off
 Static damping         CNVDamp         .... on
   Fraction old density DampFac         ....    0.7000
   Max. Damping (<1)    DampMax         ....    0.9800
   Min. Damping (>=0)   DampMin         ....    0.0000
   Turn off err/grad.   DampErr         ....    0.1000
 Fernandez-Rico         CNVRico         .... off

SCF Procedure:
 Maximum # iterations   MaxIter         ....   125
 SCF integral mode      SCFMode         .... Direct
   Integral package                     .... SHARK and LIBINT hybrid scheme
 Reset frequency        DirectResetFreq ....    20
 Integral Threshold     Thresh          ....  2.500e-11 Eh
 Primitive CutOff       TCut            ....  2.500e-12 Eh

Convergence Tolerance:
 Convergence Check Mode ConvCheckMode   .... Total+1el-Energy
 Convergence forced     ConvForced      .... 0
 Energy Change          TolE            ....  1.000e-08 Eh
 1-El. energy change                    ....  1.000e-05 Eh
 Orbital Gradient       TolG            ....  1.000e-05
 Orbital Rotation angle TolX            ....  1.000e-05
 DIIS Error             TolErr          ....  5.000e-07


Diagonalization of the overlap matrix:
Smallest eigenvalue                        ... 9.893e-07
Time for diagonalization                   ...    0.015 sec
Threshold for overlap eigenvalues          ... 1.000e-08
Number of eigenvalues below threshold      ... 0
Time for construction of square roots      ...    0.038 sec
Total time needed                          ...    0.055 sec

Time for model grid setup =    0.562 sec

------------------------------
INITIAL GUESS: MODEL POTENTIAL
------------------------------
Loading Hartree-Fock densities                     ... done
Calculating cut-offs                               ... done
Initializing the effective Hamiltonian             ... done
Setting up the integral package (SHARK)            ... done
Starting the Coulomb interaction                   ... done (   0.1 sec)
Reading the grid                                   ... done
Mapping shells                                     ... done
Starting the XC term evaluation                    ... done (   0.1 sec)
  promolecular density results
     # of electrons  =    133.986602099
     EX              =   -125.479541495
     EC              =     -4.713193625
     EX+EC           =   -130.192735120
Transforming the Hamiltonian                       ... done (   0.0 sec)
Diagonalizing the Hamiltonian                      ... done (   0.0 sec)
Back transforming the eigenvectors                 ... done (   0.0 sec)
Now organizing SCF variables                       ... done
                      ------------------
                      INITIAL GUESS DONE (   0.8 sec)
                      ------------------
-------------------
DFT GRID GENERATION
-------------------

General Integration Accuracy     IntAcc      ... 4.388
Radial Grid Type                 RadialGrid  ... OptM3 with GC (2021)
Angular Grid (max. ang.)         AngularGrid ... 4 (Lebedev-302)
Angular grid pruning method      GridPruning ... 4 (adaptive)
Weight generation scheme         WeightScheme... Becke
Basis function cutoff            BFCut       ... 1.0000e-11
Integration weight cutoff        WCut        ... 1.0000e-14
Angular grids for H and He will be reduced by one unit
Partially contracted basis set               ... off
Rotationally invariant grid construction     ... off

Total number of grid points                  ...   145908
Total number of batches                      ...     2294
Average number of points per batch           ...       63
Average number of grid points per atom       ...     5211
Time for grid setup =    1.079 sec

--------------------
COSX GRID GENERATION
--------------------

GRIDX 1
-------
General Integration Accuracy     IntAcc      ... 3.816
Radial Grid Type                 RadialGrid  ... OptM3 with GC (2021)
Angular Grid (max. ang.)         AngularGrid ... 1 (Lebedev-50)
Angular grid pruning method      GridPruning ... 4 (adaptive)
Weight generation scheme         WeightScheme... Becke
Basis function cutoff            BFCut       ... 1.0000e-11
Integration weight cutoff        WCut        ... 1.0000e-14
Angular grids for H and He will be reduced by one unit
Partially contracted basis set               ... on
Rotationally invariant grid construction     ... off

Total number of grid points                  ...    18469
Total number of batches                      ...      305
Average number of points per batch           ...       60
Average number of grid points per atom       ...      660
UseSFitting                                  ... on

GRIDX 2
-------
General Integration Accuracy     IntAcc      ... 4.020
Radial Grid Type                 RadialGrid  ... OptM3 with GC (2021)
Angular Grid (max. ang.)         AngularGrid ... 2 (Lebedev-110)
Angular grid pruning method      GridPruning ... 4 (adaptive)
Weight generation scheme         WeightScheme... Becke
Basis function cutoff            BFCut       ... 1.0000e-11
Integration weight cutoff        WCut        ... 1.0000e-14
Angular grids for H and He will be reduced by one unit
Partially contracted basis set               ... on
Rotationally invariant grid construction     ... off

Total number of grid points                  ...    44638
Total number of batches                      ...      710
Average number of points per batch           ...       62
Average number of grid points per atom       ...     1594
UseSFitting                                  ... on

GRIDX 3
-------
General Integration Accuracy     IntAcc      ... 4.338
Radial Grid Type                 RadialGrid  ... OptM3 with GC (2021)
Angular Grid (max. ang.)         AngularGrid ... 3 (Lebedev-194)
Angular grid pruning method      GridPruning ... 4 (adaptive)
Weight generation scheme         WeightScheme... Becke
Basis function cutoff            BFCut       ... 1.0000e-11
Integration weight cutoff        WCut        ... 1.0000e-14
Angular grids for H and He will be reduced by one unit
Partially contracted basis set               ... on
Rotationally invariant grid construction     ... off

Total number of grid points                  ...    97072
Total number of batches                      ...     1531
Average number of points per batch           ...       63
Average number of grid points per atom       ...     3467
UseSFitting                                  ... on

Time for X-Grid setup             =   12.786 sec

--------------
SCF ITERATIONS
--------------
ITER       Energy         Delta-E        Max-DP      RMS-DP      [F,P]     Damp
               ***  Starting incremental Fock matrix formation  ***
  0  -1204.0067750355   0.000000000000 1.60035395  0.01605535  0.2648457 0.7000
  1  -1204.2009988858  -0.194223850299 0.82840803  0.00945186  0.0973323 0.7000
                               ***Turning on DIIS***
  2  -1204.2754271549  -0.074428269113 1.43197916  0.01735094  0.0372045 0.0000
  3  -1204.3927467884  -0.117319633423 1.00773009  0.00872806  0.0512872 0.0000
  4  -1204.4192114920  -0.026464703643 0.44613734  0.00435280  0.0157212 0.0000
  5  -1204.4212054472  -0.001993955232 0.22214204  0.00215387  0.0075325 0.0000
                      *** Initiating the SOSCF procedure ***
                           *** Shutting down DIIS ***
                      *** Re-Reading the Fockian *** 
                      *** Removing any level shift *** 
ITER      Energy       Delta-E        Grad      Rot      Max-DP    RMS-DP
  6  -1204.42134909  -0.0001436444  0.000238  0.000238  0.062076  0.000616
               *** Restarting incremental Fock matrix formation ***
  7  -1204.42140185  -0.0000527570  0.000198  0.000731  0.200226  0.002431
  8  -1204.42139806   0.0000037900  0.000489  0.000618  0.022471  0.000328
  9  -1204.42140579  -0.0000077352  0.000060  0.000168  0.129092  0.001269
 10  -1204.42140548   0.0000003130  0.000110  0.000104  0.032119  0.000342
 11  -1204.42140601  -0.0000005266  0.000013  0.000061  0.140633  0.001627
 12  -1204.42140599   0.0000000166  0.000021  0.000038  0.052296  0.000506
 13  -1204.42140602  -0.0000000245  0.000006  0.000008  0.128960  0.001826
 14  -1204.42140601   0.0000000040  0.000005  0.000006  0.074788  0.000829
 15  -1204.42140602  -0.0000000072  0.000004  0.000012  0.080850  0.001003
 16  -1204.42140602  -0.0000000020  0.000003  0.000009  0.079921  0.000836
 17  -1204.42140602  -0.0000000036  0.000006  0.000008  0.087025  0.000889
 18  -1204.42140602   0.0000000009  0.000003  0.000006  0.047092  0.000398
                  ***Gradient check signals convergence***
              ***Rediagonalizing the Fockian in SOSCF/NRSCF***

               *****************************************************
               *                     SUCCESS                       *
               *           SCF CONVERGED AFTER  19 CYCLES          *
               *****************************************************

Old exchange energy                            =    -25.359273065 Eh
New exchange energy                            =    -25.359314746 Eh
Exchange energy change after final integration =     -0.000041680 Eh
Total energy after final integration           =  -1204.421447713 Eh
Final COS-X integration done in                =     2.798 sec

----------------
TOTAL SCF ENERGY
----------------

Total Energy       :        -1204.42144771 Eh          -32773.97379 eV

Components:
Nuclear Repulsion  :         1250.33074453 Eh           34023.22927 eV
Electronic Energy  :        -2454.75219225 Eh          -66797.20306 eV
One Electron Energy:        -4128.37777688 Eh         -112338.87051 eV
Two Electron Energy:         1673.62558464 Eh           45541.66745 eV
Max COSX asymmetry :            0.00012537 Eh               0.00341 eV

Virial components:
Potential Energy   :        -2403.91243128 Eh          -65413.78283 eV
Kinetic Energy     :         1199.49098356 Eh           32639.80904 eV
Virial Ratio       :            2.00411046


DFT components:
N(Alpha)           :       67.000017510659 electrons
N(Beta)            :       67.000017510659 electrons
N(Total)           :      134.000035021318 electrons
E(X)               :     -100.750822950186 Eh       
E(C)               :       -5.544377462541 Eh       
E(XC)              :     -106.295200412727 Eh       
DFET-embed. en.    :        0.000000000000 Eh       

---------------
SCF CONVERGENCE
---------------

  Last Energy change         ...   -9.6516e-09  Tolerance :   1.0000e-08
  Last MAX-Density change    ...    8.8818e-15  Tolerance :   1.0000e-07
  Last RMS-Density change    ...    1.1151e-16  Tolerance :   5.0000e-09
  Last Orbital Gradient      ...    2.4878e-06  Tolerance :   1.0000e-05
  Last Orbital Rotation      ...    5.7710e-06  Tolerance :   1.0000e-05

             **** THE GBW FILE WAS UPDATED (orc_bzorig_b3lyp_meth_ram.gbw) ****
             **** DENSITY orc_bzorig_b3lyp_meth_ram.scfp WAS UPDATED ****
             **** ENERGY FILE WAS UPDATED (orc_bzorig_b3lyp_meth_ram.en.tmp) ****
             **** THE GBW FILE WAS UPDATED (orc_bzorig_b3lyp_meth_ram.gbw) ****
             **** DENSITY orc_bzorig_b3lyp_meth_ram.scfp WAS UPDATED ****
----------------
ORBITAL ENERGIES
----------------

  NO   OCC          E(Eh)            E(eV) 
   0   2.0000    -101.537062     -2762.9639 
   1   2.0000     -19.196665      -522.3678 
   2   2.0000     -19.140626      -520.8429 
   3   2.0000     -14.348593      -390.4451 
   4   2.0000     -10.327329      -281.0209 
   5   2.0000     -10.262239      -279.2497 
   6   2.0000     -10.247014      -278.8354 
   7   2.0000     -10.244544      -278.7682 
   8   2.0000     -10.212698      -277.9016 
   9   2.0000     -10.210660      -277.8462 
  10   2.0000     -10.210046      -277.8295 
  11   2.0000     -10.208341      -277.7831 
  12   2.0000     -10.206941      -277.7450 
  13   2.0000     -10.203532      -277.6522 
  14   2.0000     -10.202914      -277.6354 
  15   2.0000     -10.201030      -277.5841 
  16   2.0000     -10.195578      -277.4358 
  17   2.0000     -10.193345      -277.3750 
  18   2.0000      -9.465738      -257.5758 
  19   2.0000      -7.228959      -196.7100 
  20   2.0000      -7.219524      -196.4532 
  21   2.0000      -7.219271      -196.4463 
  22   2.0000      -1.115281       -30.3483 
  23   2.0000      -1.018566       -27.7166 
  24   2.0000      -0.955970       -26.0133 
  25   2.0000      -0.899358       -24.4728 
  26   2.0000      -0.872072       -23.7303 
  27   2.0000      -0.843506       -22.9530 
  28   2.0000      -0.785102       -21.3637 
  29   2.0000      -0.779153       -21.2018 
  30   2.0000      -0.775309       -21.0972 
  31   2.0000      -0.747708       -20.3462 
  32   2.0000      -0.685486       -18.6530 
  33   2.0000      -0.654875       -17.8201 
  34   2.0000      -0.640118       -17.4185 
  35   2.0000      -0.627217       -17.0675 
  36   2.0000      -0.608362       -16.5544 
  37   2.0000      -0.579567       -15.7708 
  38   2.0000      -0.548466       -14.9245 
  39   2.0000      -0.526250       -14.3200 
  40   2.0000      -0.519807       -14.1447 
  41   2.0000      -0.487108       -13.2549 
  42   2.0000      -0.481004       -13.0888 
  43   2.0000      -0.479360       -13.0440 
  44   2.0000      -0.473683       -12.8896 
  45   2.0000      -0.466301       -12.6887 
  46   2.0000      -0.455369       -12.3912 
  47   2.0000      -0.448008       -12.1909 
  48   2.0000      -0.445963       -12.1353 
  49   2.0000      -0.444340       -12.0911 
  50   2.0000      -0.411513       -11.1978 
  51   2.0000      -0.405404       -11.0316 
  52   2.0000      -0.391569       -10.6551 
  53   2.0000      -0.383411       -10.4331 
  54   2.0000      -0.377425       -10.2703 
  55   2.0000      -0.374951       -10.2029 
  56   2.0000      -0.370881       -10.0922 
  57   2.0000      -0.360365        -9.8060 
  58   2.0000      -0.327345        -8.9075 
  59   2.0000      -0.322404        -8.7731 
  60   2.0000      -0.317952        -8.6519 
  61   2.0000      -0.307202        -8.3594 
  62   2.0000      -0.281162        -7.6508 
  63   2.0000      -0.276568        -7.5258 
  64   2.0000      -0.270551        -7.3621 
  65   2.0000      -0.253451        -6.8967 
  66   2.0000      -0.237364        -6.4590 
  67   0.0000      -0.066721        -1.8156 
  68   0.0000      -0.056265        -1.5311 
  69   0.0000      -0.029588        -0.8051 
  70   0.0000      -0.017605        -0.4790 
  71   0.0000      -0.005024        -0.1367 
  72   0.0000       0.000803         0.0219 
  73   0.0000       0.009015         0.2453 
  74   0.0000       0.010841         0.2950 
  75   0.0000       0.017516         0.4766 
  76   0.0000       0.020330         0.5532 
  77   0.0000       0.026713         0.7269 
  78   0.0000       0.033673         0.9163 
  79   0.0000       0.039077         1.0633 
  80   0.0000       0.043911         1.1949 
  81   0.0000       0.046608         1.2683 
  82   0.0000       0.050857         1.3839 
  83   0.0000       0.054895         1.4938 
  84   0.0000       0.062366         1.6971 
  85   0.0000       0.065815         1.7909 
  86   0.0000       0.067591         1.8392 
  87   0.0000       0.071937         1.9575 
  88   0.0000       0.080074         2.1789 
  89   0.0000       0.083113         2.2616 
  90   0.0000       0.086646         2.3578 
  91   0.0000       0.090252         2.4559 
  92   0.0000       0.098314         2.6753 
  93   0.0000       0.106500         2.8980 
  94   0.0000       0.112147         3.0517 
  95   0.0000       0.113771         3.0959 
  96   0.0000       0.116431         3.1682 
  97   0.0000       0.124126         3.3776 
  98   0.0000       0.130095         3.5401 
  99   0.0000       0.131202         3.5702 
 100   0.0000       0.136220         3.7067 
 101   0.0000       0.139616         3.7991 
 102   0.0000       0.142552         3.8790 
 103   0.0000       0.144290         3.9263 
 104   0.0000       0.149147         4.0585 
 105   0.0000       0.153371         4.1734 
 106   0.0000       0.156985         4.2718 
 107   0.0000       0.162134         4.4119 
 108   0.0000       0.164050         4.4640 
 109   0.0000       0.173714         4.7270 
 110   0.0000       0.174965         4.7611 
 111   0.0000       0.181078         4.9274 
 112   0.0000       0.183393         4.9904 
 113   0.0000       0.185013         5.0345 
 114   0.0000       0.187777         5.1097 
 115   0.0000       0.190035         5.1711 
 116   0.0000       0.191993         5.2244 
 117   0.0000       0.197433         5.3724 
 118   0.0000       0.204317         5.5598 
 119   0.0000       0.206851         5.6287 
 120   0.0000       0.207338         5.6419 
 121   0.0000       0.213868         5.8196 
 122   0.0000       0.217612         5.9215 
 123   0.0000       0.218486         5.9453 
 124   0.0000       0.221258         6.0207 
 125   0.0000       0.225700         6.1416 
 126   0.0000       0.229041         6.2325 
 127   0.0000       0.233679         6.3587 
 128   0.0000       0.235706         6.4139 
 129   0.0000       0.241137         6.5617 
 130   0.0000       0.244797         6.6613 
 131   0.0000       0.245884         6.6908 
 132   0.0000       0.249873         6.7994 
 133   0.0000       0.256051         6.9675 
 134   0.0000       0.257597         7.0096 
 135   0.0000       0.262924         7.1545 
 136   0.0000       0.264301         7.1920 
 137   0.0000       0.268333         7.3017 
 138   0.0000       0.271919         7.3993 
 139   0.0000       0.273474         7.4416 
 140   0.0000       0.279345         7.6014 
 141   0.0000       0.287581         7.8255 
 142   0.0000       0.289409         7.8752 
 143   0.0000       0.294978         8.0267 
 144   0.0000       0.298771         8.1300 
 145   0.0000       0.303826         8.2675 
 146   0.0000       0.308510         8.3950 
 147   0.0000       0.311743         8.4830 
 148   0.0000       0.317475         8.6389 
 149   0.0000       0.323054         8.7907 
 150   0.0000       0.325745         8.8640 
 151   0.0000       0.327959         8.9242 
 152   0.0000       0.333269         9.0687 
 153   0.0000       0.341194         9.2844 
 154   0.0000       0.346500         9.4287 
 155   0.0000       0.356538         9.7019 
 156   0.0000       0.358928         9.7669 
 157   0.0000       0.365187         9.9372 
 158   0.0000       0.374403        10.1880 
 159   0.0000       0.376410        10.2426 
 160   0.0000       0.389841        10.6081 
 161   0.0000       0.395820        10.7708 
 162   0.0000       0.408221        11.1082 
 163   0.0000       0.408420        11.1137 
 164   0.0000       0.421737        11.4761 
 165   0.0000       0.438589        11.9346 
 166   0.0000       0.454489        12.3673 
 167   0.0000       0.462460        12.5842 
 168   0.0000       0.465275        12.6608 
 169   0.0000       0.492011        13.3883 
 170   0.0000       0.503441        13.6993 
 171   0.0000       0.521432        14.1889 
 172   0.0000       0.549881        14.9630 
 173   0.0000       0.554447        15.0873 
 174   0.0000       0.598728        16.2922 
 175   0.0000       0.620928        16.8963 
 176   0.0000       0.623183        16.9577 
 177   0.0000       0.631292        17.1783 
 178   0.0000       0.642588        17.4857 
 179   0.0000       0.664066        18.0701 
 180   0.0000       0.672777        18.3072 
 181   0.0000       0.674431        18.3522 
 182   0.0000       0.682214        18.5640 
 183   0.0000       0.689303        18.7569 
 184   0.0000       0.692211        18.8360 
 185   0.0000       0.705243        19.1906 
 186   0.0000       0.711020        19.3478 
 187   0.0000       0.711915        19.3722 
 188   0.0000       0.726648        19.7731 
 189   0.0000       0.729944        19.8628 
 190   0.0000       0.734290        19.9810 
 191   0.0000       0.741400        20.1745 
 192   0.0000       0.745968        20.2988 
 193   0.0000       0.756866        20.5954 
 194   0.0000       0.764355        20.7991 
 195   0.0000       0.765896        20.8411 
 196   0.0000       0.783284        21.3142 
 197   0.0000       0.792078        21.5535 
 198   0.0000       0.801754        21.8168 
 199   0.0000       0.810695        22.0601 
 200   0.0000       0.817878        22.2556 
 201   0.0000       0.823805        22.4169 
 202   0.0000       0.826582        22.4924 
 203   0.0000       0.833932        22.6924 
 204   0.0000       0.847536        23.0626 
 205   0.0000       0.855125        23.2691 
 206   0.0000       0.872385        23.7388 
 207   0.0000       0.887967        24.1628 
 208   0.0000       0.896192        24.3866 
 209   0.0000       0.900628        24.5073 
 210   0.0000       0.909709        24.7544 
 211   0.0000       0.919573        25.0229 
 212   0.0000       0.926987        25.2246 
 213   0.0000       0.936964        25.4961 
 214   0.0000       0.943600        25.6767 
 215   0.0000       0.949860        25.8470 
 216   0.0000       0.954211        25.9654 
 217   0.0000       0.957504        26.0550 
 218   0.0000       0.973709        26.4960 
 219   0.0000       0.979231        26.6462 
 220   0.0000       1.019879        27.7523 
 221   0.0000       1.024122        27.8678 
 222   0.0000       1.033971        28.1358 
 223   0.0000       1.047315        28.4989 
 224   0.0000       1.052468        28.6391 
 225   0.0000       1.068688        29.0805 
 226   0.0000       1.089496        29.6467 
 227   0.0000       1.093347        29.7515 
 228   0.0000       1.098936        29.9036 
 229   0.0000       1.108236        30.1566 
 230   0.0000       1.115611        30.3573 
 231   0.0000       1.141089        31.0506 
 232   0.0000       1.160638        31.5826 
 233   0.0000       1.171042        31.8657 
 234   0.0000       1.178407        32.0661 
 235   0.0000       1.181847        32.1597 
 236   0.0000       1.193453        32.4755 
 237   0.0000       1.197306        32.5803 
 238   0.0000       1.200740        32.6738 
 239   0.0000       1.210284        32.9335 
 240   0.0000       1.226596        33.3774 
 241   0.0000       1.230985        33.4968 
 242   0.0000       1.248553        33.9748 
 243   0.0000       1.260936        34.3118 
 244   0.0000       1.281734        34.8778 
 245   0.0000       1.284707        34.9587 
 246   0.0000       1.297323        35.3020 
 247   0.0000       1.314664        35.7738 
 248   0.0000       1.331474        36.2313 
 249   0.0000       1.336662        36.3724 
 250   0.0000       1.351478        36.7756 
 251   0.0000       1.366525        37.1850 
 252   0.0000       1.378575        37.5129 
 253   0.0000       1.386139        37.7187 
 254   0.0000       1.395028        37.9606 
 255   0.0000       1.410303        38.3763 
 256   0.0000       1.421688        38.6861 
 257   0.0000       1.426293        38.8114 
 258   0.0000       1.435766        39.0692 
 259   0.0000       1.444996        39.3203 
 260   0.0000       1.452999        39.5381 
 261   0.0000       1.455906        39.6172 
 262   0.0000       1.461472        39.7687 
 263   0.0000       1.477575        40.2069 
 264   0.0000       1.482326        40.3361 
 265   0.0000       1.486271        40.4435 
 266   0.0000       1.501327        40.8532 
 267   0.0000       1.509383        41.0724 
 268   0.0000       1.536824        41.8191 
 269   0.0000       1.542182        41.9649 
 270   0.0000       1.607265        43.7359 
 271   0.0000       1.643176        44.7131 
 272   0.0000       1.695061        46.1250 
 273   0.0000       1.710824        46.5539 
 274   0.0000       1.729906        47.0731 
 275   0.0000       1.744740        47.4768 
 276   0.0000       1.793919        48.8150 
 277   0.0000       1.813357        49.3439 
 278   0.0000       1.826003        49.6881 
 279   0.0000       1.832761        49.8720 
 280   0.0000       1.855251        50.4839 
 281   0.0000       1.859401        50.5969 
 282   0.0000       1.869151        50.8622 
 283   0.0000       1.881211        51.1903 
 284   0.0000       1.893683        51.5297 
 285   0.0000       1.912578        52.0439 
 286   0.0000       1.921787        52.2945 
 287   0.0000       1.931120        52.5485 
 288   0.0000       1.969870        53.6029 
 289   0.0000       1.976360        53.7795 
 290   0.0000       1.980285        53.8863 
 291   0.0000       1.996447        54.3261 
 292   0.0000       2.003413        54.5156 
 293   0.0000       2.024025        55.0765 
 294   0.0000       2.049847        55.7792 
 295   0.0000       2.064435        56.1761 
 296   0.0000       2.076444        56.5029 
 297   0.0000       2.101126        57.1745 
 298   0.0000       2.119140        57.6647 
 299   0.0000       2.127445        57.8907 
 300   0.0000       2.139959        58.2312 
 301   0.0000       2.146666        58.4138 
 302   0.0000       2.168456        59.0067 
 303   0.0000       2.175851        59.2079 
 304   0.0000       2.185171        59.4615 
 305   0.0000       2.201001        59.8923 
 306   0.0000       2.217132        60.3312 
 307   0.0000       2.246741        61.1369 
 308   0.0000       2.279997        62.0419 
 309   0.0000       2.289218        62.2928 
 310   0.0000       2.292190        62.3736 
 311   0.0000       2.301497        62.6269 
 312   0.0000       2.313591        62.9560 
 313   0.0000       2.363377        64.3108 
 314   0.0000       2.372794        64.5670 
 315   0.0000       2.387737        64.9736 
 316   0.0000       2.396868        65.2221 
 317   0.0000       2.434087        66.2349 
 318   0.0000       2.479926        67.4822 
 319   0.0000       2.530460        68.8573 
 320   0.0000       2.536688        69.0268 
 321   0.0000       2.567819        69.8739 
 322   0.0000       2.611695        71.0678 
 323   0.0000       2.628098        71.5142 
 324   0.0000       2.646195        72.0066 
 325   0.0000       2.658526        72.3422 
 326   0.0000       2.667916        72.5977 
 327   0.0000       2.673072        72.7380 
 328   0.0000       2.683766        73.0290 
 329   0.0000       2.702531        73.5396 
 330   0.0000       2.731777        74.3354 
 331   0.0000       2.732257        74.3485 
 332   0.0000       2.775820        75.5339 
 333   0.0000       2.791399        75.9578 
 334   0.0000       2.793472        76.0142 
 335   0.0000       2.826664        76.9175 
 336   0.0000       2.853726        77.6538 
 337   0.0000       2.890562        78.6562 
 338   0.0000       2.960232        80.5520 
 339   0.0000       2.969412        80.8018 
 340   0.0000       2.994078        81.4730 
 341   0.0000       3.027943        82.3945 
 342   0.0000       3.085152        83.9513 
 343   0.0000       3.152614        85.7870 
 344   0.0000       3.222365        87.6850 
 345   0.0000       3.273451        89.0751 
 346   0.0000       3.418094        93.0111 
 347   0.0000       3.466847        94.3377 

                    ********************************
                    * MULLIKEN POPULATION ANALYSIS *
                    ********************************

-----------------------
MULLIKEN ATOMIC CHARGES
-----------------------
   0 O :   -0.662571
   1 O :   -0.441338
   2 N :    0.096809
   3 C :   -0.628583
   4 C :    0.096915
   5 C :    0.664735
   6 C :    0.128361
   7 C :   -0.627279
   8 C :   -0.994366
   9 C :   -0.146621
  10 C :   -0.043220
  11 C :   -0.736844
  12 C :    0.537720
  13 C :   -0.614172
  14 C :   -0.604823
  15 C :    0.424376
  16 C :    1.094951
  17 H :    0.192621
  18 H :    0.214607
  19 H :    0.167804
  20 H :    0.183014
  21 H :    0.180907
  22 H :    0.185100
  23 H :    0.219740
  24 H :    0.202735
  25 H :    0.204267
  26 Cl:    0.170989
  27 H :    0.534163
Sum of atomic charges:    0.0000000

--------------------------------
MULLIKEN REDUCED ORBITAL CHARGES
--------------------------------
  0 O s       :     3.882611  s :     3.882611
      pz      :     1.743741  p :     4.754468
      px      :     1.670700
      py      :     1.340027
      dz2     :     0.005242  d :     0.025492
      dxz     :     0.004579
      dyz     :     0.001700
      dx2y2   :     0.006503
      dxy     :     0.007469
  1 O s       :     3.928809  s :     3.928809
      pz      :     1.437466  p :     4.486243
      px      :     1.338682
      py      :     1.710096
      dz2     :     0.004696  d :     0.026286
      dxz     :     0.006929
      dyz     :     0.002428
      dx2y2   :     0.006487
      dxy     :     0.005746
  2 N s       :     3.394070  s :     3.394070
      pz      :     1.395226  p :     3.471867
      px      :     0.950819
      py      :     1.125822
      dz2     :     0.008300  d :     0.037254
      dxz     :     0.010745
      dyz     :     0.007142
      dx2y2   :     0.005913
      dxy     :     0.005153
  3 C s       :     3.581552  s :     3.581552
      pz      :     0.950858  p :     2.988948
      px      :     1.069459
      py      :     0.968631
      dz2     :     0.004607  d :     0.058082
      dxz     :     0.011822
      dyz     :     0.006900
      dx2y2   :     0.017694
      dxy     :     0.017060
  4 C s       :     2.379763  s :     2.379763
      pz      :     1.024383  p :     3.486049
      px      :     1.116229
      py      :     1.345437
      dz2     :     0.003615  d :     0.037274
      dxz     :     0.005940
      dyz     :     0.003961
      dx2y2   :     0.011733
      dxy     :     0.012025
  5 C s       :     2.363570  s :     2.363570
      pz      :     0.863748  p :     2.931631
      px      :     1.053142
      py      :     1.014740
      dz2     :     0.010665  d :     0.040065
      dxz     :     0.012524
      dyz     :     0.006250
      dx2y2   :     0.005878
      dxy     :     0.004747
  6 C s       :     3.224026  s :     3.224026
      pz      :     1.001739  p :     2.612258
      px      :     0.708285
      py      :     0.902235
      dz2     :     0.003391  d :     0.035355
      dxz     :     0.004764
      dyz     :     0.003752
      dx2y2   :     0.009681
      dxy     :     0.013767
  7 C s       :     3.662244  s :     3.662244
      pz      :     0.926825  p :     2.927416
      px      :     1.027003
      py      :     0.973588
      dz2     :     0.003427  d :     0.037619
      dxz     :     0.005420
      dyz     :     0.004587
      dx2y2   :     0.010735
      dxy     :     0.013449
  8 C s       :     4.041882  s :     4.041882
      pz      :     1.007819  p :     2.892305
      px      :     1.011331
      py      :     0.873155
      dz2     :     0.021526  d :     0.060179
      dxz     :     0.015035
      dyz     :     0.004943
      dx2y2   :     0.009459
      dxy     :     0.009215
  9 C s       :     3.260517  s :     3.260517
      pz      :     0.958004  p :     2.848252
      px      :     0.845955
      py      :     1.044294
      dz2     :     0.003874  d :     0.037851
      dxz     :     0.006421
      dyz     :     0.002881
      dx2y2   :     0.012636
      dxy     :     0.012038
 10 C s       :     3.108164  s :     3.108164
      pz      :     1.016398  p :     2.898467
      px      :     1.020128
      py      :     0.861942
      dz2     :     0.003581  d :     0.036589
      dxz     :     0.002645
      dyz     :     0.005701
      dx2y2   :     0.014024
      dxy     :     0.010638
 11 C s       :     3.439216  s :     3.439216
      pz      :     1.081754  p :     3.260524
      px      :     1.198954
      py      :     0.979816
      dz2     :     0.010830  d :     0.037104
      dxz     :     0.012317
      dyz     :     0.002577
      dx2y2   :     0.005139
      dxy     :     0.006241
 12 C s       :     2.720906  s :     2.720906
      pz      :     0.981383  p :     2.704538
      px      :     0.796703
      py      :     0.926452
      dz2     :     0.008983  d :     0.036835
      dxz     :     0.014241
      dyz     :     0.003690
      dx2y2   :     0.004999
      dxy     :     0.004922
 13 C s       :     3.484714  s :     3.484714
      pz      :     0.986631  p :     3.093364
      px      :     1.104279
      py      :     1.002454
      dz2     :     0.008643  d :     0.036093
      dxz     :     0.013844
      dyz     :     0.004075
      dx2y2   :     0.004962
      dxy     :     0.004569
 14 C s       :     3.581700  s :     3.581700
      pz      :     1.078692  p :     2.986886
      px      :     0.914227
      py      :     0.993967
      dz2     :     0.009551  d :     0.036236
      dxz     :     0.013340
      dyz     :     0.003033
      dx2y2   :     0.004767
      dxy     :     0.005545
 15 C s       :     2.738230  s :     2.738230
      pz      :     0.947245  p :     2.789600
      px      :     0.814761
      py      :     1.027594
      dz2     :     0.012203  d :     0.047793
      dxz     :     0.014165
      dyz     :     0.007439
      dx2y2   :     0.007575
      dxy     :     0.006412
 16 C s       :     2.417376  s :     2.417376
      pz      :     0.746687  p :     2.361263
      px      :     0.665841
      py      :     0.948734
      dz2     :     0.016564  d :     0.126410
      dxz     :     0.022505
      dyz     :     0.018239
      dx2y2   :     0.029136
      dxy     :     0.039965
 17 H s       :     0.807379  s :     0.807379
 18 H s       :     0.785393  s :     0.785393
 19 H s       :     0.832196  s :     0.832196
 20 H s       :     0.816986  s :     0.816986
 21 H s       :     0.819093  s :     0.819093
 22 H s       :     0.814900  s :     0.814900
 23 H s       :     0.780260  s :     0.780260
 24 H s       :     0.797265  s :     0.797265
 25 H s       :     0.795733  s :     0.795733
 26 Cls       :     5.805365  s :     5.805365
      pz      :     3.935561  p :    10.999126
      px      :     3.133029
      py      :     3.930536
      dz2     :     0.003890  d :     0.024520
      dxz     :     0.003824
      dyz     :     0.000185
      dx2y2   :     0.011407
      dxy     :     0.005214
 27 H s       :     0.465837  s :     0.465837


                     *******************************
                     * LOEWDIN POPULATION ANALYSIS *
                     *******************************

----------------------
LOEWDIN ATOMIC CHARGES
----------------------
   0 O :   -0.442624
   1 O :   -0.312814
   2 N :   -0.203166
   3 C :    0.001493
   4 C :   -0.103548
   5 C :   -0.115581
   6 C :   -0.183929
   7 C :   -0.141224
   8 C :   -0.033519
   9 C :   -0.164440
  10 C :   -0.206660
  11 C :   -0.166869
  12 C :   -0.137736
  13 C :   -0.202014
  14 C :   -0.194673
  15 C :   -0.153279
  16 C :    0.226038
  17 H :    0.228245
  18 H :    0.236214
  19 H :    0.223755
  20 H :    0.211907
  21 H :    0.211663
  22 H :    0.220095
  23 H :    0.241193
  24 H :    0.226970
  25 H :    0.227571
  26 Cl:    0.092756
  27 H :    0.414175

-------------------------------
LOEWDIN REDUCED ORBITAL CHARGES
-------------------------------
  0 O s       :     3.531379  s :     3.531379
      pz      :     1.755412  p :     4.859320
      px      :     1.719003
      py      :     1.384904
      dz2     :     0.008392  d :     0.051926
      dxz     :     0.008404
      dyz     :     0.005768
      dx2y2   :     0.013685
      dxy     :     0.015677
  1 O s       :     3.556642  s :     3.556642
      pz      :     1.478235  p :     4.700313
      px      :     1.481370
      py      :     1.740708
      dz2     :     0.007683  d :     0.055858
      dxz     :     0.015555
      dyz     :     0.004530
      dx2y2   :     0.014179
      dxy     :     0.013912
  2 N s       :     3.194330  s :     3.194330
      pz      :     1.540348  p :     3.924966
      px      :     1.211006
      py      :     1.173611
      dz2     :     0.018939  d :     0.083871
      dxz     :     0.026764
      dyz     :     0.009308
      dx2y2   :     0.016326
      dxy     :     0.012534
  3 C s       :     2.821061  s :     2.821061
      pz      :     0.922998  p :     3.038908
      px      :     1.013247
      py      :     1.102664
      dz2     :     0.009886  d :     0.138538
      dxz     :     0.025065
      dyz     :     0.014318
      dx2y2   :     0.046052
      dxy     :     0.043218
  4 C s       :     2.829680  s :     2.829680
      pz      :     1.048392  p :     3.176350
      px      :     1.092686
      py      :     1.035272
      dz2     :     0.008701  d :     0.097518
      dxz     :     0.012358
      dyz     :     0.008049
      dx2y2   :     0.034277
      dxy     :     0.034133
  5 C s       :     2.848349  s :     2.848349
      pz      :     1.113695  p :     3.163565
      px      :     1.075196
      py      :     0.974674
      dz2     :     0.031088  d :     0.103666
      dxz     :     0.035840
      dyz     :     0.012911
      dx2y2   :     0.014711
      dxy     :     0.009117
  6 C s       :     2.888758  s :     2.888758
      pz      :     1.016163  p :     3.210295
      px      :     1.108503
      py      :     1.085629
      dz2     :     0.007114  d :     0.084876
      dxz     :     0.009634
      dyz     :     0.007149
      dx2y2   :     0.026606
      dxy     :     0.034373
  7 C s       :     2.890868  s :     2.890868
      pz      :     0.948164  p :     3.162217
      px      :     1.089967
      py      :     1.124086
      dz2     :     0.006826  d :     0.088139
      dxz     :     0.011399
      dyz     :     0.008850
      dx2y2   :     0.027770
      dxy     :     0.033293
  8 C s       :     2.879099  s :     2.879099
      pz      :     1.096301  p :     3.013280
      px      :     1.058905
      py      :     0.858074
      dz2     :     0.052677  d :     0.141140
      dxz     :     0.037730
      dyz     :     0.008804
      dx2y2   :     0.023769
      dxy     :     0.018160
  9 C s       :     2.902825  s :     2.902825
      pz      :     0.951574  p :     3.172753
      px      :     1.110615
      py      :     1.110563
      dz2     :     0.007635  d :     0.088863
      dxz     :     0.013910
      dyz     :     0.005367
      dx2y2   :     0.031494
      dxy     :     0.030457
 10 C s       :     2.897198  s :     2.897198
[...]
     81       0.000181   0.000874   0.000142  -0.000040   0.001957  -0.441489
     82      -0.000391  -0.000833  -0.000376   0.000012  -0.000447   0.877023
     83      -0.000026  -0.000207  -0.000066   0.000046   0.000166   0.179241


-----------
IR SPECTRUM
-----------

 Mode   freq       eps      Int      T**2         TX        TY        TZ
       cm**-1   L/(mol*cm) km/mol    a.u.
----------------------------------------------------------------------------
  6:     25.76   0.000118    0.60  0.001433  (-0.012039  0.000784 -0.035887)
  7:     30.75   0.000025    0.12  0.000250  ( 0.006308  0.005469 -0.013432)
  8:     34.57   0.000074    0.37  0.000669  (-0.004148 -0.018765  0.017309)
  9:     56.95   0.000023    0.11  0.000124  ( 0.004815  0.009678 -0.002674)
 10:     83.44   0.000554    2.80  0.002073  ( 0.015863  0.042622 -0.002238)
 11:    111.58   0.000128    0.65  0.000359  ( 0.018435 -0.003040  0.003114)
 12:    152.90   0.000292    1.47  0.000595  (-0.004308  0.012615 -0.020435)
 13:    182.47   0.000486    2.46  0.000831  (-0.012922 -0.025288 -0.004950)
 14:    224.54   0.000497    2.51  0.000691  ( 0.015623  0.005045  0.020534)
 15:    233.99   0.000133    0.67  0.000178  ( 0.003019  0.006361  0.011316)
 16:    286.24   0.000044    0.22  0.000048  ( 0.002161  0.005920 -0.002850)
 17:    327.80   0.000457    2.31  0.000435  (-0.012912  0.015393 -0.005590)
 18:    371.31   0.000429    2.17  0.000361  ( 0.011764  0.014020  0.005075)
 19:    380.76   0.002625   13.26  0.002151  ( 0.045080 -0.009144  0.005942)
 20:    409.10   0.001128    5.70  0.000860  ( 0.021018 -0.006600 -0.019365)
 21:    421.68   0.000095    0.48  0.000071  (-0.002795 -0.007928  0.000041)
 22:    440.39   0.001062    5.37  0.000753  (-0.016283  0.010312 -0.019525)
 23:    461.46   0.003592   18.15  0.002429  (-0.036909 -0.032561  0.002626)
 24:    509.31   0.003787   19.14  0.002320  ( 0.010370  0.046748  0.005239)
 25:    556.14   0.001254    6.34  0.000703  (-0.004409 -0.013749  0.022248)
 26:    563.49   0.000732    3.70  0.000406  ( 0.014525  0.010149  0.009570)
 27:    601.20   0.001222    6.18  0.000635  ( 0.011720 -0.007699 -0.020926)
 28:    607.68   0.013335   67.39  0.006848  (-0.023692  0.015342 -0.077790)
 29:    641.65   0.007261   36.69  0.003531  ( 0.010191  0.058518  0.001691)
 30:    643.63   0.000914    4.62  0.000443  ( 0.002015  0.019606 -0.007412)
 31:    698.62   0.000548    2.77  0.000245  ( 0.011433  0.010278 -0.002936)
 32:    718.10   0.009265   46.82  0.004026  (-0.005979  0.003404 -0.063078)
 33:    720.95   0.000323    1.63  0.000140  ( 0.005492  0.008365 -0.006315)
 34:    755.99   0.007874   39.79  0.003250  (-0.020732 -0.039305  0.035714)
 35:    775.54   0.007257   36.67  0.002920  (-0.017306 -0.000355  0.051190)
 36:    808.65   0.000154    0.78  0.000059  ( 0.004789 -0.000214  0.006040)
 37:    834.65   0.004440   22.44  0.001660  ( 0.001195  0.039674 -0.009200)
 38:    847.28   0.004371   22.09  0.001610  ( 0.007640  0.039180 -0.004044)
 39:    852.32   0.001457    7.36  0.000534  ( 0.011518 -0.019080  0.006073)
 40:    873.46   0.013295   67.19  0.004750  ( 0.067481  0.003181  0.013641)
 41:    897.98   0.007341   37.10  0.002551  (-0.044585  0.001015 -0.023714)
 42:    964.49   0.000209    1.06  0.000068  (-0.004608 -0.006802  0.000395)
 43:    975.69   0.000383    1.94  0.000123  (-0.001068 -0.009112  0.006194)
 44:    991.05   0.000043    0.22  0.000014  ( 0.003440 -0.000684 -0.001170)
 45:    999.84   0.000007    0.03  0.000002  (-0.000034  0.000904  0.001122)
 46:   1012.12   0.002455   12.41  0.000757  ( 0.022667  0.015594 -0.000028)
 47:   1028.78   0.007321   37.00  0.002221  ( 0.046781 -0.003228  0.004678)
 48:   1067.14   0.002331   11.78  0.000682  ( 0.001620 -0.026042  0.000857)
 49:   1078.34   0.035809  180.96  0.010363  (-0.074996 -0.068732 -0.003781)
 50:   1102.86   0.017520   88.54  0.004957  (-0.069374  0.008442 -0.008563)
 51:   1134.30   0.001417    7.16  0.000390  ( 0.008613 -0.002896  0.017528)
 52:   1159.26   0.006975   35.25  0.001878  ( 0.002871  0.043011 -0.004405)
 53:   1189.72   0.040334  203.83  0.010580  ( 0.067471  0.076812  0.011282)
 54:   1199.37   0.018143   91.69  0.004721  (-0.053653 -0.042563 -0.005514)
 55:   1203.34   0.011933   60.30  0.003095  (-0.001255 -0.055613 -0.000361)
 56:   1220.09   0.012194   61.62  0.003119  (-0.046012  0.030329 -0.009052)
 57:   1269.76   0.000199    1.00  0.000049  (-0.001393  0.002415 -0.006409)
 58:   1295.90   0.002956   14.94  0.000712  ( 0.026217  0.004083  0.002791)
 59:   1330.26   0.001001    5.06  0.000235  (-0.011343  0.000429 -0.010296)
 60:   1338.30   0.002922   14.77  0.000681  (-0.018148 -0.018683  0.001695)
 61:   1340.21   0.002941   14.86  0.000685  ( 0.024057 -0.010296  0.000182)
 62:   1369.35   0.016418   82.97  0.003742  ( 0.012562  0.059745  0.003790)
 63:   1418.74   0.005362   27.10  0.001179  ( 0.025416  0.004321  0.022687)
 64:   1450.56   0.000617    3.12  0.000133  ( 0.005858 -0.004086  0.009041)
 65:   1482.98   0.002349   11.87  0.000494  ( 0.022091  0.000383  0.002463)
 66:   1515.57   0.015026   75.93  0.003094  ( 0.050787  0.022083  0.005189)
 67:   1532.02   0.011761   59.44  0.002396  (-0.048811  0.000263 -0.003621)
 68:   1603.42   0.008243   41.66  0.001604  ( 0.024244  0.031396  0.005552)
 69:   1614.66   0.005884   29.73  0.001137  (-0.033085  0.001762 -0.006276)
 70:   1641.07   0.030769  155.49  0.005851  ( 0.074413 -0.017643  0.001556)
 71:   1648.31   0.003658   18.49  0.000693  (-0.016255  0.020041  0.005167)
 72:   1729.91   0.054080  273.30  0.009756  ( 0.097401 -0.004570 -0.015741)
 73:   1781.17   0.097243  491.42  0.017037  ( 0.124458 -0.034431 -0.019021)
 74:   3065.78   0.006124   30.95  0.000623  ( 0.004877  0.000567  0.024480)
 75:   3186.29   0.000746    3.77  0.000073  (-0.003912  0.007462  0.001445)
 76:   3188.42   0.001162    5.87  0.000114  ( 0.005693  0.000116  0.009015)
 77:   3202.52   0.002771   14.00  0.000270  ( 0.016193 -0.000152  0.002786)
 78:   3210.04   0.000210    1.06  0.000020  (-0.004459 -0.000148 -0.000736)
 79:   3210.95   0.003038   15.35  0.000295  ( 0.007066 -0.015280 -0.003450)
 80:   3220.86   0.000766    3.87  0.000074  (-0.005514  0.000744  0.006578)
 81:   3223.97   0.000586    2.96  0.000057  ( 0.004380  0.000048  0.006123)
 82:   3234.14   0.001098    5.55  0.000106  (-0.010133  0.001025 -0.001476)
 83:   3686.51   0.017040   86.11  0.001442  (-0.001652  0.037584  0.005208)

* The epsilon (eps) is given for a Dirac delta lineshape.
** The dipole moment derivative (T) already includes vibrational overlap.

--------------
RAMAN SPECTRUM  
--------------

 Mode    freq (cm**-1)   Activity   Depolarization
-------------------------------------------------------------------
   6:        25.76      5.708060      0.638302
   7:        30.75      6.297505      0.703823
   8:        34.57      3.022081      0.743442
   9:        56.95      1.923385      0.590619
  10:        83.44      4.405071      0.412319
  11:       111.58      2.751625      0.584378
  12:       152.90     22.603331      0.333179
  13:       182.47      9.051270      0.393162
  14:       224.54      2.573875      0.345159
  15:       233.99      1.523214      0.306092
  16:       286.24      9.037380      0.297567
  17:       327.80     15.792510      0.277607
  18:       371.31      1.386103      0.112904
  19:       380.76      2.565830      0.724696
  20:       409.10      4.914726      0.287794
  21:       421.68      1.076683      0.314629
  22:       440.39      5.182436      0.403253
  23:       461.46      3.777037      0.726357
  24:       509.31      0.554732      0.538143
  25:       556.14      7.562356      0.315442
  26:       563.49      0.563709      0.349230
  27:       601.20      4.644536      0.718479
  28:       607.68      5.499976      0.365842
  29:       641.65      2.297361      0.625781
  30:       643.63      5.026649      0.701186
  31:       698.62     25.048731      0.103355
  32:       718.10     15.275049      0.123707
  33:       720.95      0.696725      0.720782
  34:       755.99      6.118900      0.175274
  35:       775.54      2.606042      0.655598
  36:       808.65      4.128896      0.331838
  37:       834.65      0.880274      0.352930
  38:       847.28      0.706538      0.189572
  39:       852.32      2.237024      0.369169
  40:       873.46     20.281338      0.652782
  41:       897.98      8.241135      0.647876
  42:       964.49      0.617323      0.337628
  43:       975.69      0.243705      0.611433
  44:       991.05      0.583964      0.224454
  45:       999.84      0.334710      0.749997
  46:      1012.12     10.225977      0.290103
  47:      1028.78      6.509805      0.117608
  48:      1067.14     75.056535      0.101755
  49:      1078.34      7.850573      0.074487
  50:      1102.86     99.370650      0.154558
  51:      1134.30     17.119544      0.200719
  52:      1159.26     18.627125      0.162517
  53:      1189.72    146.111268      0.186376
  54:      1199.37    179.014501      0.219323
  55:      1203.34     40.964047      0.364410
  56:      1220.09    233.103312      0.276868
  57:      1269.76     82.644058      0.360853
  58:      1295.90      2.668832      0.299843
  59:      1330.26      6.131114      0.450129
  60:      1338.30     14.924134      0.749794
  61:      1340.21     45.197207      0.340267
  62:      1369.35     25.854294      0.194514
  63:      1418.74     14.872732      0.575413
  64:      1450.56     12.081880      0.267836
  65:      1482.98     31.042282      0.289265
  66:      1515.57     77.912551      0.257246
  67:      1532.02     18.131143      0.335809
  68:      1603.42    118.420014      0.255549
  69:      1614.66     96.435550      0.358302
  70:      1641.07   1168.174656      0.424849
  71:      1648.31     19.996425      0.521855
  72:      1729.91   1614.243540      0.297646
  73:      1781.17     49.796757      0.698015
  74:      3065.78     47.519561      0.405726
  75:      3186.29     84.337177      0.684667
  76:      3188.42     55.457220      0.483372
  77:      3202.52    137.089704      0.585814
  78:      3210.04     48.972943      0.700179
  79:      3210.95    189.495990      0.157371
  80:      3220.86    105.065461      0.307410
  81:      3223.97    144.866863      0.157685
  82:      3234.14    162.801331      0.204505
  83:      3686.51    132.632480      0.282365

The first frequency considered to be a vibration is 6
The total number of vibrations considered is 78


--------------------------
THERMOCHEMISTRY AT 298.15K
--------------------------

Temperature         ... 298.15 K
Pressure            ... 1.00 atm
Total Mass          ... 259.69 AMU

Throughout the following assumptions are being made:
  (1) The electronic state is orbitally nondegenerate
  (2) There are no thermally accessible electronically excited states
  (3) Hindered rotations indicated by low frequency modes are not
      treated as such but are treated as vibrations and this may
      cause some error
  (4) All equations used are the standard statistical mechanics
      equations for an ideal gas
  (5) All vibrations are strictly harmonic

freq.      25.76  E(vib)   ...       0.56 
freq.      30.75  E(vib)   ...       0.55 
freq.      34.57  E(vib)   ...       0.54 
freq.      56.95  E(vib)   ...       0.51 
freq.      83.44  E(vib)   ...       0.48 
freq.     111.58  E(vib)   ...       0.45 
freq.     152.90  E(vib)   ...       0.40 
freq.     182.47  E(vib)   ...       0.37 
freq.     224.54  E(vib)   ...       0.33 
freq.     233.99  E(vib)   ...       0.32 
freq.     286.24  E(vib)   ...       0.27 
freq.     327.80  E(vib)   ...       0.24 
freq.     371.31  E(vib)   ...       0.21 
freq.     380.76  E(vib)   ...       0.21 
freq.     409.10  E(vib)   ...       0.19 
freq.     421.68  E(vib)   ...       0.18 
freq.     440.39  E(vib)   ...       0.17 
freq.     461.46  E(vib)   ...       0.16 
freq.     509.31  E(vib)   ...       0.14 
freq.     556.14  E(vib)   ...       0.12 
freq.     563.49  E(vib)   ...       0.11 
freq.     601.20  E(vib)   ...       0.10 
freq.     607.68  E(vib)   ...       0.10 
freq.     641.65  E(vib)   ...       0.09 
freq.     643.63  E(vib)   ...       0.09 
freq.     698.62  E(vib)   ...       0.07 
freq.     718.10  E(vib)   ...       0.07 
freq.     720.95  E(vib)   ...       0.07 
freq.     755.99  E(vib)   ...       0.06 
freq.     775.54  E(vib)   ...       0.05 
freq.     808.65  E(vib)   ...       0.05 
freq.     834.65  E(vib)   ...       0.04 
freq.     847.28  E(vib)   ...       0.04 
freq.     852.32  E(vib)   ...       0.04 
freq.     873.46  E(vib)   ...       0.04 
freq.     897.98  E(vib)   ...       0.03 
freq.     964.49  E(vib)   ...       0.03 
freq.     975.69  E(vib)   ...       0.03 
freq.     991.05  E(vib)   ...       0.02 
freq.     999.84  E(vib)   ...       0.02 
freq.    1012.12  E(vib)   ...       0.02 
freq.    1028.78  E(vib)   ...       0.02 
freq.    1067.14  E(vib)   ...       0.02 
freq.    1078.34  E(vib)   ...       0.02 
freq.    1102.86  E(vib)   ...       0.02 
freq.    1134.30  E(vib)   ...       0.01 
freq.    1159.26  E(vib)   ...       0.01 
freq.    1189.72  E(vib)   ...       0.01 
freq.    1199.37  E(vib)   ...       0.01 
freq.    1203.34  E(vib)   ...       0.01 
freq.    1220.09  E(vib)   ...       0.01 
freq.    1269.76  E(vib)   ...       0.01 
freq.    1295.90  E(vib)   ...       0.01 
freq.    1330.26  E(vib)   ...       0.01 
freq.    1338.30  E(vib)   ...       0.01 
freq.    1340.21  E(vib)   ...       0.01 
freq.    1369.35  E(vib)   ...       0.01 
freq.    1418.74  E(vib)   ...       0.00 
freq.    1450.56  E(vib)   ...       0.00 
freq.    1482.98  E(vib)   ...       0.00 
freq.    1515.57  E(vib)   ...       0.00 
freq.    1532.02  E(vib)   ...       0.00 
freq.    1603.42  E(vib)   ...       0.00 
freq.    1614.66  E(vib)   ...       0.00 
freq.    1641.07  E(vib)   ...       0.00 
freq.    1648.31  E(vib)   ...       0.00 
freq.    1729.91  E(vib)   ...       0.00 
freq.    1781.17  E(vib)   ...       0.00 
freq.    3065.78  E(vib)   ...       0.00 
freq.    3186.29  E(vib)   ...       0.00 
freq.    3188.42  E(vib)   ...       0.00 
freq.    3202.52  E(vib)   ...       0.00 
freq.    3210.04  E(vib)   ...       0.00 
freq.    3210.95  E(vib)   ...       0.00 
freq.    3220.86  E(vib)   ...       0.00 
freq.    3223.97  E(vib)   ...       0.00 
freq.    3234.14  E(vib)   ...       0.00 
freq.    3686.51  E(vib)   ...       0.00 

------------
INNER ENERGY
------------

The inner energy is: U= E(el) + E(ZPE) + E(vib) + E(rot) + E(trans)
    E(el)   - is the total energy from the electronic structure calculation
              = E(kin-el) + E(nuc-el) + E(el-el) + E(nuc-nuc)
    E(ZPE)  - the the zero temperature vibrational energy from the frequency calculation
    E(vib)  - the the finite temperature correction to E(ZPE) due to population
              of excited vibrational states
    E(rot)  - is the rotational thermal energy
    E(trans)- is the translational thermal energy

Summary of contributions to the inner energy U:
Electronic energy                ...  -1204.42879164 Eh
Zero point energy                ...      0.20790646 Eh     130.46 kcal/mol
Thermal vibrational correction   ...      0.01238033 Eh       7.77 kcal/mol
Thermal rotational correction    ...      0.00141627 Eh       0.89 kcal/mol
Thermal translational correction ...      0.00141627 Eh       0.89 kcal/mol
-----------------------------------------------------------------------
Total thermal energy                  -1204.20567232 Eh


Summary of corrections to the electronic energy:
(perhaps to be used in another calculation)
Total thermal correction                  0.01521287 Eh       9.55 kcal/mol
Non-thermal (ZPE) correction              0.20790646 Eh     130.46 kcal/mol
-----------------------------------------------------------------------
Total correction                          0.22311933 Eh     140.01 kcal/mol


--------
ENTHALPY
--------

The enthalpy is H = U + kB*T
                kB is Boltzmann's constant
Total free energy                 ...  -1204.20567232 Eh 
Thermal Enthalpy correction       ...      0.00094421 Eh       0.59 kcal/mol
-----------------------------------------------------------------------
Total Enthalpy                    ...  -1204.20472811 Eh


Note: Only C1 symmetry has been detected, increase convergence thresholds 
      if your molecule has a higher symmetry. Symmetry factor of 1.0 is   
      used for the rotational entropy correction. 
 

Note: Rotational entropy computed according to Herzberg 
Infrared and Raman Spectra, Chapter V,1, Van Nostrand Reinhold, 1945 
Point Group:  C1, Symmetry Number:   1  
Rotational constants in cm-1:     0.033385     0.004888     0.004478 

Vibrational entropy computed according to the QRRHO of S. Grimme
Chem.Eur.J. 2012 18 9955


-------
ENTROPY
-------

The entropy contributions are T*S = T*(S(el)+S(vib)+S(rot)+S(trans))
     S(el)   - electronic entropy
     S(vib)  - vibrational entropy
     S(rot)  - rotational entropy
     S(trans)- translational entropy
The entropies will be listed as multiplied by the temperature to get
units of energy

Electronic entropy                ...      0.00000000 Eh      0.00 kcal/mol
Vibrational entropy               ...      0.02186946 Eh     13.72 kcal/mol
Rotational entropy                ...      0.01618112 Eh     10.15 kcal/mol
Translational entropy             ...      0.02022283 Eh     12.69 kcal/mol
-----------------------------------------------------------------------
Final entropy term                ...      0.05827341 Eh     36.57 kcal/mol

In case the symmetry of your molecule has not been determined correctly
or in case you have a reason to use a different symmetry number we print 
out the resulting rotational entropy values for sn=1,12 :
 --------------------------------------------------------
|  sn= 1 | S(rot)=       0.01618112 Eh     10.15 kcal/mol|
|  sn= 2 | S(rot)=       0.01552667 Eh      9.74 kcal/mol|
|  sn= 3 | S(rot)=       0.01514383 Eh      9.50 kcal/mol|
|  sn= 4 | S(rot)=       0.01487221 Eh      9.33 kcal/mol|
|  sn= 5 | S(rot)=       0.01466152 Eh      9.20 kcal/mol|
|  sn= 6 | S(rot)=       0.01448938 Eh      9.09 kcal/mol|
|  sn= 7 | S(rot)=       0.01434383 Eh      9.00 kcal/mol|
|  sn= 8 | S(rot)=       0.01421775 Eh      8.92 kcal/mol|
|  sn= 9 | S(rot)=       0.01410654 Eh      8.85 kcal/mol|
|  sn=10 | S(rot)=       0.01400707 Eh      8.79 kcal/mol|
|  sn=11 | S(rot)=       0.01391708 Eh      8.73 kcal/mol|
|  sn=12 | S(rot)=       0.01383492 Eh      8.68 kcal/mol|
 --------------------------------------------------------


-------------------
GIBBS FREE ENERGY
-------------------

The Gibbs free energy is G = H - T*S

Total enthalpy                    ...  -1204.20472811 Eh 
Total entropy correction          ...     -0.05827341 Eh    -36.57 kcal/mol
-----------------------------------------------------------------------
Final Gibbs free energy         ...  -1204.26300151 Eh

For completeness - the Gibbs free energy minus the electronic energy
G-E(el)                           ...      0.16579013 Eh    104.03 kcal/mol



Timings for individual modules:

Sum of individual times         ...     5864.841 sec (=  97.747 min)
GTO integral calculation        ...       47.832 sec (=   0.797 min)   0.8 %
SCF iterations                  ...      553.255 sec (=   9.221 min)   9.4 %
Solution of CP-SCF eqns.        ...       16.994 sec (=   0.283 min)   0.3 %
SCF Gradient evaluation         ...      121.637 sec (=   2.027 min)   2.1 %
Geometry relaxation             ...        0.866 sec (=   0.014 min)   0.0 %
Numerical frequency calculation ...     5124.258 sec (=  85.404 min)  87.4 %
                             ****ORCA TERMINATED NORMALLY****
TOTAL RUN TIME: 0 days 1 hours 38 minutes 2 seconds 847 msec
