
                                 *****************
                                 * O   R   C   A *
                                 *****************

                                            #,                                       
                                            ###                                      
                                            ####                                     
                                            #####                                    
                                            ######                                   
                                           ########,                                 
                                     ,,################,,,,,                         
                               ,,#################################,,                 
                          ,,##########################################,,             
                       ,#########################################, ''#####,          
                    ,#############################################,,   '####,        
                  ,##################################################,,,,####,       
                ,###########''''           ''''###############################       
              ,#####''   ,,,,##########,,,,          '''####'''          '####       
            ,##' ,,,,###########################,,,                        '##       
           ' ,,###''''                  '''############,,,                           
         ,,##''                                '''############,,,,        ,,,,,,###''
      ,#''                                            '''#######################'''  
     '                                                          ''''####''''         
             ,#######,   #######,   ,#######,      ##                                
            ,#'     '#,  ##    ##  ,#'     '#,    #''#        ######   ,####,        
            ##       ##  ##   ,#'  ##            #'  '#       #        #'  '#        
            ##       ##  #######   ##           ,######,      #####,   #    #        
            '#,     ,#'  ##    ##  '#,     ,#' ,#      #,         ##   #,  ,#        
             '#######'   ##     ##  '#######'  #'      '#     #####' # '####'        



                  #######################################################
                  #                        -***-                        #
                  #          Department of theory and spectroscopy      #
                  #    Directorship and core code : Frank Neese         #
                  #        Max Planck Institute fuer Kohlenforschung    #
                  #                Kaiser Wilhelm Platz 1               #
                  #                 D-45470 Muelheim/Ruhr               #
                  #                      Germany                        #
                  #                                                     #
                  #                  All rights reserved                #
                  #                        -***-                        #
                  #######################################################


                         Program Version 5.0.1 -  RELEASE  -


 With contributions from (in alphabetic order):
   Daniel Aravena         : Magnetic Suceptibility
   Michael Atanasov       : Ab Initio Ligand Field Theory (pilot matlab implementation)
   Alexander A. Auer      : GIAO ZORA, VPT2 properties, NMR spectrum
   Ute Becker             : Parallelization
   Giovanni Bistoni       : ED, misc. LED, open-shell LED, HFLD
   Martin Brehm           : Molecular dynamics
   Dmytro Bykov           : SCF Hessian
   Vijay G. Chilkuri      : MRCI spin determinant printing, contributions to CSF-ICE
   Dipayan Datta          : RHF DLPNO-CCSD density
   Achintya Kumar Dutta   : EOM-CC, STEOM-CC
   Dmitry Ganyushin       : Spin-Orbit,Spin-Spin,Magnetic field MRCI
   Miquel Garcia          : C-PCM and meta-GGA Hessian, CC/C-PCM, Gaussian charge scheme
   Yang Guo               : DLPNO-NEVPT2, F12-NEVPT2, CIM, IAO-localization
   Andreas Hansen         : Spin unrestricted coupled pair/coupled cluster methods
   Benjamin Helmich-Paris : MC-RPA, TRAH-SCF, COSX integrals
   Lee Huntington         : MR-EOM, pCC
   Robert Izsak           : Overlap fitted RIJCOSX, COSX-SCS-MP3, EOM
   Marcus Kettner         : VPT2
   Christian Kollmar      : KDIIS, OOCD, Brueckner-CCSD(T), CCSD density, CASPT2, CASPT2-K
   Simone Kossmann        : Meta GGA functionals, TD-DFT gradient, OOMP2, MP2 Hessian
   Martin Krupicka        : Initial AUTO-CI
   Lucas Lang             : DCDCAS
   Marvin Lechner         : AUTO-CI (C++ implementation), FIC-MRCC
   Dagmar Lenk            : GEPOL surface, SMD
   Dimitrios Liakos       : Extrapolation schemes; Compound Job, initial MDCI parallelization
   Dimitrios Manganas     : Further ROCIS development; embedding schemes
   Dimitrios Pantazis     : SARC Basis sets
   Anastasios Papadopoulos: AUTO-CI, single reference methods and gradients
   Taras Petrenko         : DFT Hessian,TD-DFT gradient, ASA, ECA, R-Raman, ABS, FL, XAS/XES, NRVS
   Peter Pinski           : DLPNO-MP2, DLPNO-MP2 Gradient
   Christoph Reimann      : Effective Core Potentials
   Marius Retegan         : Local ZFS, SOC
   Christoph Riplinger    : Optimizer, TS searches, QM/MM, DLPNO-CCSD(T), (RO)-DLPNO pert. Triples
   Tobias Risthaus        : Range-separated hybrids, TD-DFT gradient, RPA, STAB
   Michael Roemelt        : Original ROCIS implementation
   Masaaki Saitow         : Open-shell DLPNO-CCSD energy and density
   Barbara Sandhoefer     : DKH picture change effects
   Avijit Sen             : IP-ROCIS
   Kantharuban Sivalingam : CASSCF convergence, NEVPT2, FIC-MRCI
   Bernardo de Souza      : ESD, SOC TD-DFT
   Georgi Stoychev        : AutoAux, RI-MP2 NMR, DLPNO-MP2 response
   Willem Van den Heuvel  : Paramagnetic NMR
   Boris Wezisla          : Elementary symmetry handling
   Frank Wennmohs         : Technical directorship


 We gratefully acknowledge several colleagues who have allowed us to
 interface, adapt or use parts of their codes:
   Stefan Grimme, W. Hujo, H. Kruse, P. Pracht,  : VdW corrections, initial TS optimization,
                  C. Bannwarth, S. Ehlert          DFT functionals, gCP, sTDA/sTD-DF
   Ed Valeev, F. Pavosevic, A. Kumar             : LibInt (2-el integral package), F12 methods
   Garnet Chan, S. Sharma, J. Yang, R. Olivares  : DMRG
   Ulf Ekstrom                                   : XCFun DFT Library
   Mihaly Kallay                                 : mrcc  (arbitrary order and MRCC methods)
   Jiri Pittner, Ondrej Demel                    : Mk-CCSD
   Frank Weinhold                                : gennbo (NPA and NBO analysis)
   Christopher J. Cramer and Donald G. Truhlar   : smd solvation model
   Lars Goerigk                                  : TD-DFT with DH, B97 family of functionals
   V. Asgeirsson, H. Jonsson                     : NEB implementation
   FAccTs GmbH                                   : IRC, NEB, NEB-TS, DLPNO-Multilevel, CI-OPT
                                                   MM, QMMM, 2- and 3-layer-ONIOM, Crystal-QMMM,
                                                   LR-CPCM, SF, NACMEs, symmetry and pop. for TD-DFT,
                                                   nearIR, NL-DFT gradient (VV10), updates on ESD,
                                                   ML-optimized integration grids
   S Lehtola, MJT Oliveira, MAL Marques          : LibXC Library
   Liviu Ungur et al                             : ANISO software


 Your calculation uses the libint2 library for the computation of 2-el integrals
 For citations please refer to: http://libint.valeyev.net

 Your ORCA version has been built with support for libXC version: 5.1.0
 For citations please refer to: https://tddft.org/programs/libxc/

 This ORCA versions uses:
   CBLAS   interface :  Fast vector & matrix operations
   LAPACKE interface :  Fast linear algebra routines
   SCALAPACK package :  Parallel linear algebra routines
   Shared memory     :  Shared parallel matrices
   BLAS/LAPACK       :  OpenBLAS 0.3.15  USE64BITINT DYNAMIC_ARCH NO_AFFINITY Zen SINGLE_THREADED
        Core in use  :  Zen
   Copyright (c) 2011-2014, The OpenBLAS Project


Your calculation utilizes the SMD solvation module
Please cite in your paper:
A.V. Marenich, C.J. Cramer, D.G. Truhlar J. Phys. Chem. B, 113, (2009), 6378 

================================================================================

----- Orbital basis set information -----
Your calculation utilizes the basis: 6-31+G*
   H-He, Li-Ne : W. J. Hehre, R. Ditchfield and J.A. Pople, J. Chem. Phys. 56, 2257 (1972).
                 Note: He and Ne are unpublished basis sets taken from the Gaussian program.
                 Note: Li and B from J. D. Dill and J. A. Pople, J. Chem. Phys. 62, 2921 (1975).
   Na - Ar     : M. M. Francl, W. J. Pietro, W. J. Hehre, J. S. Binkley, M. S. Gordon, 
                 D. J. DeFrees and J. A. Pople, J. Chem. Phys. 77, 3654 (1982).
   K - Zn      : V. A. Rassolov, J. A. Pople, M. A. Ratner, and T. L. Windus, J. Chem. Phys. 109, 1223 (1998).
   Additional Pol./Diff. from the 6-311G equivalent.

----- AuxJ basis set information -----
Your calculation utilizes the auxiliary basis: def2/J
   F. Weigend, Phys. Chem. Chem. Phys. 8, 1057 (2006).

================================================================================
                                        WARNINGS
                       Please study these warnings very carefully!
================================================================================

INFO   : Checking CIS options ...

WARNING: CIS/ROCIS methods need fully converged wavefunctions
  ===> : Setting SCFConvForced true
         You can overwrite this default with %scf ConvForced false 


INFO   : the flag for use of the SHARK integral package has been found!

================================================================================
                                       INPUT FILE
================================================================================
NAME = orc_dy01_b3lyp_meth_uvv.inp
|  1> !B3LYP 6-31+G*
|  2> %pal nprocs 16 end
|  3> %cpcm smd true SMDsolvent "methanol" end
|  4> %tddft nroots 10 end
|  5> * xyz 1 1
|  6> N      -2.15030     0.41850    -0.43230
|  7> N       2.41730     0.91950     0.04830
|  8> C      -1.35370     0.61410     0.62080
|  9> C       1.11090     0.41950     0.23640
| 10> C      -3.39870    -0.07280    -0.31760
| 11> C       3.52950     0.02910    -0.10420
| 12> C      -0.00370     1.15310     0.42610
| 13> C      -1.62290     0.76080    -1.76630
| 14> C       2.73860     2.35020    -0.00240
| 15> C      -3.89190    -0.39650     0.96580
| 16> C       3.30710    -1.36920    -0.09530
| 17> C      -1.77690     0.31750     1.90070
| 18> C       0.92990    -1.03210     0.22830
| 19> C      -3.05880    -0.19280     2.07420
| 20> C       1.94850    -1.88410     0.07200
| 21> C      -4.19640    -0.26050    -1.45070
| 22> C       4.85940     0.46650    -0.26370
| 23> C      -5.19380    -0.90860     1.08190
| 24> C       4.36950    -2.27380    -0.24350
| 25> C      -1.92930     2.20150    -2.12840
| 26> C       3.25240     2.85100     1.33160
| 27> C      -5.48700    -0.77010    -1.31620
| 28> C       5.91470    -0.44000    -0.41040
| 29> C      -5.98450    -1.09320    -0.05410
| 30> C       5.67040    -1.80760    -0.40100
| 31> H       0.03090     2.23730     0.46080
| 32> H      -0.54470     0.59450    -1.81410
| 33> H      -1.98110     0.05600    -2.52000
| 34> H       3.43900     2.58420    -0.81320
| 35> H       1.85560     2.93980    -0.27310
| 36> H      -1.13830     0.47310     2.76520
| 37> H      -0.05250    -1.47810     0.34330
| 38> H      -3.40330    -0.43010     3.07800
| 39> H       1.78270    -2.95580     0.06750
| 40> H      -3.90220    -0.00530    -2.46100
| 41> H       5.13300     1.51650    -0.28240
| 42> H      -5.60210    -1.16700     2.05640
| 43> H       4.19200    -3.34680    -0.23650
| 44> H      -1.49340     2.90100    -1.40920
| 45> H      -1.52330     2.43690    -3.11710
| 46> H      -3.00750     2.38620    -2.15340
| 47> H       3.48220     3.91960     1.26920
| 48> H       2.49540     2.71790     2.11240
| 49> H       4.15620     2.33440     1.66530
| 50> H      -6.11060    -0.90920    -2.19480
| 51> H       6.92960    -0.07180    -0.53250
| 52> H      -6.99150    -1.48830     0.04600
| 53> H       6.49110    -2.50920    -0.51520
| 54> *
| 55> 
| 56> 
| 57>                          ****END OF INPUT****
================================================================================

                       ****************************
                       * Single Point Calculation *
                       ****************************

---------------------------------
CARTESIAN COORDINATES (ANGSTROEM)
---------------------------------
  N     -2.150300    0.418500   -0.432300
  N      2.417300    0.919500    0.048300
  C     -1.353700    0.614100    0.620800
  C      1.110900    0.419500    0.236400
  C     -3.398700   -0.072800   -0.317600
  C      3.529500    0.029100   -0.104200
  C     -0.003700    1.153100    0.426100
  C     -1.622900    0.760800   -1.766300
  C      2.738600    2.350200   -0.002400
  C     -3.891900   -0.396500    0.965800
  C      3.307100   -1.369200   -0.095300
  C     -1.776900    0.317500    1.900700
  C      0.929900   -1.032100    0.228300
  C     -3.058800   -0.192800    2.074200
  C      1.948500   -1.884100    0.072000
  C     -4.196400   -0.260500   -1.450700
  C      4.859400    0.466500   -0.263700
  C     -5.193800   -0.908600    1.081900
  C      4.369500   -2.273800   -0.243500
  C     -1.929300    2.201500   -2.128400
  C      3.252400    2.851000    1.331600
  C     -5.487000   -0.770100   -1.316200
  C      5.914700   -0.440000   -0.410400
  C     -5.984500   -1.093200   -0.054100
  C      5.670400   -1.807600   -0.401000
  H      0.030900    2.237300    0.460800
  H     -0.544700    0.594500   -1.814100
  H     -1.981100    0.056000   -2.520000
  H      3.439000    2.584200   -0.813200
  H      1.855600    2.939800   -0.273100
  H     -1.138300    0.473100    2.765200
  H     -0.052500   -1.478100    0.343300
  H     -3.403300   -0.430100    3.078000
  H      1.782700   -2.955800    0.067500
  H     -3.902200   -0.005300   -2.461000
  H      5.133000    1.516500   -0.282400
  H     -5.602100   -1.167000    2.056400
  H      4.192000   -3.346800   -0.236500
  H     -1.493400    2.901000   -1.409200
  H     -1.523300    2.436900   -3.117100
  H     -3.007500    2.386200   -2.153400
  H      3.482200    3.919600    1.269200
  H      2.495400    2.717900    2.112400
  H      4.156200    2.334400    1.665300
  H     -6.110600   -0.909200   -2.194800
  H      6.929600   -0.071800   -0.532500
  H     -6.991500   -1.488300    0.046000
  H      6.491100   -2.509200   -0.515200

----------------------------
CARTESIAN COORDINATES (A.U.)
----------------------------
  NO LB      ZA    FRAG     MASS         X           Y           Z
   0 N     7.0000    0    14.007   -4.063478    0.790850   -0.816929
   1 N     7.0000    0    14.007    4.568035    1.737603    0.091274
   2 C     6.0000    0    12.011   -2.558122    1.160481    1.173142
   3 C     6.0000    0    12.011    2.099297    0.792740    0.446731
   4 C     6.0000    0    12.011   -6.422612   -0.137572   -0.600177
   5 C     6.0000    0    12.011    6.669788    0.054991   -0.196909
   6 C     6.0000    0    12.011   -0.006992    2.179043    0.805212
   7 C     6.0000    0    12.011   -3.066837    1.437704   -3.337823
   8 C     6.0000    0    12.011    5.175204    4.441234   -0.004535
   9 C     6.0000    0    12.011   -7.354625   -0.749276    1.825098
  10 C     6.0000    0    12.011    6.249513   -2.587413   -0.180091
  11 C     6.0000    0    12.011   -3.357854    0.599988    3.591802
  12 C     6.0000    0    12.011    1.757256   -1.950386    0.431424
  13 C     6.0000    0    12.011   -5.780294   -0.364339    3.919670
  14 C     6.0000    0    12.011    3.682131   -3.560433    0.136060
  15 C     6.0000    0    12.011   -7.930047   -0.492274   -2.741426
  16 C     6.0000    0    12.011    9.182935    0.881557   -0.498321
  17 C     6.0000    0    12.011   -9.814860   -1.717005    2.044495
  18 C     6.0000    0    12.011    8.257158   -4.296859   -0.460148
  19 C     6.0000    0    12.011   -3.645849    4.160232   -4.022093
  20 C     6.0000    0    12.011    6.146145    5.387609    2.516359
  21 C     6.0000    0    12.011  -10.368927   -1.455278   -2.487258
  22 C     6.0000    0    12.011   11.177163   -0.831479   -0.775544
  23 C     6.0000    0    12.011  -11.309066   -2.065849   -0.102234
  24 C     6.0000    0    12.011   10.715503   -3.415869   -0.757780
  25 H     1.0000    0     1.008    0.058393    4.227884    0.870786
  26 H     1.0000    0     1.008   -1.029334    1.123442   -3.428152
  27 H     1.0000    0     1.008   -3.743736    0.105825   -4.762110
  28 H     1.0000    0     1.008    6.498768    4.883430   -1.536725
  29 H     1.0000    0     1.008    3.506576    5.555417   -0.516084
  30 H     1.0000    0     1.008   -2.151075    0.894029    5.225471
  31 H     1.0000    0     1.008   -0.099211   -2.793204    0.648743
  32 H     1.0000    0     1.008   -6.431305   -0.812771    5.816577
  33 H     1.0000    0     1.008    3.368815   -5.585653    0.127557
  34 H     1.0000    0     1.008   -7.374089   -0.010016   -4.650616
  35 H     1.0000    0     1.008    9.699964    2.865770   -0.533659
  36 H     1.0000    0     1.008  -10.586435   -2.205310    3.886033
  37 H     1.0000    0     1.008    7.921732   -6.324535   -0.446920
  38 H     1.0000    0     1.008   -2.822117    5.482096   -2.663002
  39 H     1.0000    0     1.008   -2.878620    4.605074   -5.890465
  40 H     1.0000    0     1.008   -5.683351    4.509265   -4.069336
  41 H     1.0000    0     1.008    6.580404    7.406971    2.398440
  42 H     1.0000    0     1.008    4.715623    5.136087    3.991857
  43 H     1.0000    0     1.008    7.854080    4.411377    3.146961
  44 H     1.0000    0     1.008  -11.547361   -1.718139   -4.147571
  45 H     1.0000    0     1.008   13.095046   -0.135682   -1.006279
  46 H     1.0000    0     1.008  -13.212020   -2.812479    0.086927
  47 H     1.0000    0     1.008   12.266401   -4.741701   -0.973587

--------------------------------
INTERNAL COORDINATES (ANGSTROEM)
--------------------------------
 N      0   0   0     0.000000000000     0.00000000     0.00000000
 N      1   0   0     4.620059211742     0.00000000     0.00000000
 C      1   2   0     1.334859741696    46.53210408     0.00000000
 C      2   1   3     1.411404467189    20.00795604    53.61968095
 C      1   2   4     1.346489636054   161.32138593   352.47136454
 C      2   1   3     1.432849346582   133.54654779   110.67894325
 C      4   2   1     1.347771571892   126.25660166   313.01843835
 C      1   2   4     1.474746096791    73.46307356   215.70686578
 C      2   1   3     1.467210506369   108.58115472   272.25730762
 C      5   1   2     1.412495483179   118.99607858    49.02519460
 C      6   2   1     1.415903902106   119.41301776   341.87799489
 C      3   1   2     1.380294827202   121.13683054   199.46741379
 C      4   2   1     1.462863346318   117.73069474   133.04680554
 C     12   3   1     1.390602729035   118.50133361     0.00000000
 C     13   4   2     1.337116169224   122.59364256     1.05801665
 C      5   1   2     1.398381990016   120.58662168   229.02769325
 C      6   2   1     1.409039751036   123.48805485   161.98793156
 C     10   5   1     1.403805267835   118.85317954   180.00491041
 C     11   6   2     1.403195695546   121.13577580   179.91539866
 C      8   1   2     1.516777458957   111.35650507   255.38997613
 C      9   2   1     1.514710229714   111.48428498   113.10511274
 C     16   5   1     1.394069858364   119.93352140   179.99883724
 C     17   6   2     1.398900007148   121.51497120   180.05071891
 C     22  16   5     1.394559525442   120.15056429     0.00000000
 C     23  17   6     1.389280608804   120.30030821   359.96328672
 H      7   4   2     1.085306818370   121.45884863   359.22255056
 H      8   1   2     1.091996231678   110.93757025    17.61157188
 H      8   1   2     1.092297564769   110.92332358   129.33819287
 H      9   2   1     1.096682634129   111.92949859   238.56104843
 H      9   2   1     1.095716957065   110.90184575   352.41396293
 H     12   3   1     1.085993356333   121.80742407   180.05305543
 H     13   4   2     1.085011870903   121.28746399   181.50953645
 H     14  12   3     1.087476887111   119.16107827   180.00850668
 H     15  13   4     1.084458749792   120.91145533   180.17413339
 H     16   5   1     1.082768105367   124.71045305   357.81426711
 H     17   6   2     1.085221935827   122.70091521   359.96949410
 H     18  10   5     1.087717656380   120.58928687   180.02113466
 H     19  11   6     1.087604822534   120.78174542   180.04271864
 H     20   8   1     1.093872798821   111.71181759    59.54883693
 H     20   8   1     1.094429920095   110.18357418   179.56616861
 H     20   8   1     1.094191176166   111.39794276   299.37970370
 H     21   9   2     1.094809462875   110.10320408   180.15102423
 H     21   9   2     1.095633720730   110.67670308   299.12360845
 H     21   9   2     1.093199748445   113.14332148    59.50163222
 H     22  16   5     1.086353409347   120.01334890   179.52534075
 H     23  17   6     1.086508932315   119.79145953   179.94383180
 H     24  22  16     1.086357685111   119.89002546   179.88627379
 H     25  23  17     1.085740618196   120.16410825   179.99001059

---------------------------
INTERNAL COORDINATES (A.U.)
---------------------------
 N      0   0   0     0.000000000000     0.00000000     0.00000000
 N      1   0   0     8.730646632692     0.00000000     0.00000000
 C      1   2   0     2.522519339002    46.53210408     0.00000000
 C      2   1   3     2.667167907180    20.00795604    53.61968095
 C      1   2   4     2.544496654305   161.32138593   352.47136454
 C      2   1   3     2.707692856208   133.54654779   110.67894325
 C      4   2   1     2.546919161960   126.25660166   313.01843835
 C      1   2   4     2.786866240004    73.46307356   215.70686578
 C      2   1   3     2.772626037850   108.58115472   272.25730762
 C      5   1   2     2.669229628608   118.99607858    49.02519460
 C      6   2   1     2.675670606931   119.41301776   341.87799489
 C      3   1   2     2.608379207480   121.13683054   199.46741379
 C      4   2   1     2.764411095892   117.73069474   133.04680554
 C     12   3   1     2.627858318960   118.50133361     0.00000000
 C     13   4   2     2.526783369071   122.59364256     1.05801665
 C      5   1   2     2.642558991737   120.58662168   229.02769325
 C      6   2   1     2.662699241267   123.48805485   161.98793156
 C     10   5   1     2.652807501563   118.85317954   180.00491041
 C     11   6   2     2.651655576880   121.13577580   179.91539866
 C      8   1   2     2.866294003534   111.35650507   255.38997613
 C      9   2   1     2.862387506408   111.48428498   113.10511274
 C     16   5   1     2.634410243863   119.93352140   179.99883724
 C     17   6   2     2.643537902251   121.51497120   180.05071891
 C     22  16   5     2.635335580536   120.15056429     0.00000000
 C     23  17   6     2.625359873808   120.30030821   359.96328672
 H      7   4   2     2.050932657996   121.45884863   359.22255056
 H      8   1   2     2.063573817146   110.93757025    17.61157188
 H      8   1   2     2.064143254162   110.92332358   129.33819287
 H      9   2   1     2.072429834331   111.92949859   238.56104843
 H      9   2   1     2.070604969147   110.90184575   352.41396293
 H     12   3   1     2.052230026728   121.80742407   180.05305543
 H     13   4   2     2.050375288060   121.28746399   181.50953645
 H     14  12   3     2.055033493608   119.16107827   180.00850668
 H     15  13   4     2.049330040641   120.91145533   180.17413339
 H     16   5   1     2.046135185688   124.71045305   357.81426711
 H     17   6   2     2.050772253237   122.70091521   359.96949410
 H     18  10   5     2.055488481588   120.58928687   180.02113466
 H     19  11   6     2.055275256522   120.78174542   180.04271864
 H     20   8   1     2.067120015117   111.71181759    59.54883693
 H     20   8   1     2.068172821750   110.18357418   179.56616861
 H     20   8   1     2.067721661107   111.39794276   299.37970370
 H     21   9   2     2.068890053659   110.10320408   180.15102423
 H     21   9   2     2.070447675268   110.67670308   299.12360845
 H     21   9   2     2.065848134232   113.14332148    59.50163222
 H     22  16   5     2.052910428318   120.01334890   179.52534075
 H     23  17   6     2.053204324134   119.79145953   179.94383180
 H     24  22  16     2.052918508341   119.89002546   179.88627379
 H     25  23  17     2.051752420864   120.16410825   179.99001059

---------------------
BASIS SET INFORMATION
---------------------
There are 3 groups of distinct atoms

 Group   1 Type N   : 11s5p1d contracted to 4s3p1d pattern {6311/311/1}
 Group   2 Type C   : 11s5p1d contracted to 4s3p1d pattern {6311/311/1}
 Group   3 Type H   : 4s contracted to 2s pattern {31}

Atom   0N    basis set group =>   1
Atom   1N    basis set group =>   1
Atom   2C    basis set group =>   2
Atom   3C    basis set group =>   2
Atom   4C    basis set group =>   2
Atom   5C    basis set group =>   2
Atom   6C    basis set group =>   2
Atom   7C    basis set group =>   2
Atom   8C    basis set group =>   2
Atom   9C    basis set group =>   2
Atom  10C    basis set group =>   2
Atom  11C    basis set group =>   2
Atom  12C    basis set group =>   2
Atom  13C    basis set group =>   2
Atom  14C    basis set group =>   2
Atom  15C    basis set group =>   2
Atom  16C    basis set group =>   2
Atom  17C    basis set group =>   2
Atom  18C    basis set group =>   2
Atom  19C    basis set group =>   2
Atom  20C    basis set group =>   2
Atom  21C    basis set group =>   2
Atom  22C    basis set group =>   2
Atom  23C    basis set group =>   2
Atom  24C    basis set group =>   2
Atom  25H    basis set group =>   3
Atom  26H    basis set group =>   3
Atom  27H    basis set group =>   3
Atom  28H    basis set group =>   3
Atom  29H    basis set group =>   3
Atom  30H    basis set group =>   3
Atom  31H    basis set group =>   3
Atom  32H    basis set group =>   3
Atom  33H    basis set group =>   3
Atom  34H    basis set group =>   3
Atom  35H    basis set group =>   3
Atom  36H    basis set group =>   3
Atom  37H    basis set group =>   3
Atom  38H    basis set group =>   3
Atom  39H    basis set group =>   3
Atom  40H    basis set group =>   3
Atom  41H    basis set group =>   3
Atom  42H    basis set group =>   3
Atom  43H    basis set group =>   3
Atom  44H    basis set group =>   3
Atom  45H    basis set group =>   3
Atom  46H    basis set group =>   3
Atom  47H    basis set group =>   3
---------------------------------
AUXILIARY/J BASIS SET INFORMATION
---------------------------------
There are 3 groups of distinct atoms

 Group   1 Type N   : 12s5p4d2f1g contracted to 6s4p3d1f1g pattern {711111/2111/211/2/1}
 Group   2 Type C   : 12s5p4d2f1g contracted to 6s4p3d1f1g pattern {711111/2111/211/2/1}
 Group   3 Type H   : 5s2p1d contracted to 3s1p1d pattern {311/2/1}

Atom   0N    basis set group =>   1
Atom   1N    basis set group =>   1
Atom   2C    basis set group =>   2
Atom   3C    basis set group =>   2
Atom   4C    basis set group =>   2
Atom   5C    basis set group =>   2
Atom   6C    basis set group =>   2
Atom   7C    basis set group =>   2
Atom   8C    basis set group =>   2
Atom   9C    basis set group =>   2
Atom  10C    basis set group =>   2
Atom  11C    basis set group =>   2
Atom  12C    basis set group =>   2
Atom  13C    basis set group =>   2
Atom  14C    basis set group =>   2
Atom  15C    basis set group =>   2
Atom  16C    basis set group =>   2
Atom  17C    basis set group =>   2
Atom  18C    basis set group =>   2
Atom  19C    basis set group =>   2
Atom  20C    basis set group =>   2
Atom  21C    basis set group =>   2
Atom  22C    basis set group =>   2
Atom  23C    basis set group =>   2
Atom  24C    basis set group =>   2
Atom  25H    basis set group =>   3
Atom  26H    basis set group =>   3
Atom  27H    basis set group =>   3
Atom  28H    basis set group =>   3
Atom  29H    basis set group =>   3
Atom  30H    basis set group =>   3
Atom  31H    basis set group =>   3
Atom  32H    basis set group =>   3
Atom  33H    basis set group =>   3
Atom  34H    basis set group =>   3
Atom  35H    basis set group =>   3
Atom  36H    basis set group =>   3
Atom  37H    basis set group =>   3
Atom  38H    basis set group =>   3
Atom  39H    basis set group =>   3
Atom  40H    basis set group =>   3
Atom  41H    basis set group =>   3
Atom  42H    basis set group =>   3
Atom  43H    basis set group =>   3
Atom  44H    basis set group =>   3
Atom  45H    basis set group =>   3
Atom  46H    basis set group =>   3
Atom  47H    basis set group =>   3


           ************************************************************
           *        Program running with 16 parallel MPI-processes    *
           *              working on a common directory               *
           ************************************************************
------------------------------------------------------------------------------
                           ORCA GTO INTEGRAL CALCULATION
                           -- RI-GTO INTEGRALS CHOSEN --
------------------------------------------------------------------------------
------------------------------------------------------------------------------
                   ___                                                        
                  /   \      - P O W E R E D   B Y -                         
                 /     \                                                     
                 |  |  |   _    _      __       _____    __    __             
                 |  |  |  | |  | |    /  \     |  _  \  |  |  /  |          
                  \  \/   | |  | |   /    \    | | | |  |  | /  /          
                 / \  \   | |__| |  /  /\  \   | |_| |  |  |/  /          
                |  |  |   |  __  | /  /__\  \  |    /   |      \           
                |  |  |   | |  | | |   __   |  |    \   |  |\   \          
                \     /   | |  | | |  |  |  |  | |\  \  |  | \   \       
                 \___/    |_|  |_| |__|  |__|  |_| \__\ |__|  \__/        
                                                                              
                      - O R C A' S   B I G   F R I E N D -                    
                                      &                                       
                       - I N T E G R A L  F E E D E R -                       
                                                                              
 v1 FN, 2020, v2 2021                                                         
------------------------------------------------------------------------------


Reading SHARK input file orc_dy01_b3lyp_meth_uvv.SHARKINP.tmp ... ok
----------------------
SHARK INTEGRAL PACKAGE
----------------------

Number of atoms                             ...     48
Number of basis functions                   ...    496
Number of shells                            ...    246
Maximum angular momentum                    ...      2
Integral batch strategy                     ... SHARK/LIBINT Hybrid
RI-J (if used) integral strategy            ... SPLIT-RIJ (Revised 2003 algorithm where possible)
Printlevel                                  ...      1
Contraction scheme used                     ... SEGMENTED contraction
Coulomb Range Separation                    ... NOT USED
Exchange Range Separation                   ... NOT USED
Finite Nucleus Model                        ... NOT USED
Auxiliary Coulomb fitting basis             ... AVAILABLE
   # of basis functions in Aux-J            ...   1478
   # of shells in Aux-J                     ...    490
   Maximum angular momentum in Aux-J        ...      4
Auxiliary J/K fitting basis                 ... NOT available
Auxiliary Correlation fitting basis         ... NOT available
Auxiliary 'external' fitting basis          ... NOT available
Integral threshold                          ...     1.000000e-10
Primitive cut-off                           ...     1.000000e-11
Primitive pair pre-selection threshold      ...     1.000000e-11

Calculating pre-screening integrals         ... done (  0.1 sec) Dimension = 246
Organizing shell pair data                  ... done (  0.2 sec)
Shell pair information
Total number of shell pairs                 ...     30381
Shell pairs after pre-screening             ...     23853
Total number of primitive shell pairs       ...    134497
Primitive shell pairs kept                  ...     64065
          la=0 lb=0:   7947 shell pairs
          la=1 lb=0:   9270 shell pairs
          la=1 lb=1:   2602 shell pairs
          la=2 lb=0:   2359 shell pairs
          la=2 lb=1:   1500 shell pairs
          la=2 lb=2:    175 shell pairs

Calculating one electron integrals          ... done (  0.0 sec)
Calculating RI/J V-Matrix + Cholesky decomp.... done (  0.6 sec)
Calculating Nuclear repulsion               ... done (  0.0 sec) ENN=   2059.720121155292 Eh

SHARK setup successfully completed in   1.4 seconds

Maximum memory used throughout the entire GTOINT-calculation: 38.8 MB


           ************************************************************
           *        Program running with 16 parallel MPI-processes    *
           *              working on a common directory               *
           ************************************************************
-------------------------------------------------------------------------------
                                 ORCA SCF
-------------------------------------------------------------------------------

------------
SCF SETTINGS
------------
Hamiltonian:
 Density Functional     Method          .... DFT(GTOs)
 Exchange Functional    Exchange        .... B88
   X-Alpha parameter    XAlpha          ....  0.666667
   Becke's b parameter  XBeta           ....  0.004200
 Correlation Functional Correlation     .... LYP
 LDA part of GGA corr.  LDAOpt          .... VWN-5
 Gradients option       PostSCFGGA      .... off
 Hybrid DFT is turned on
   Fraction HF Exchange ScalHFX         ....  0.200000
   Scaling of DF-GGA-X  ScalDFX         ....  0.720000
   Scaling of DF-GGA-C  ScalDFC         ....  0.810000
   Scaling of DF-LDA-C  ScalLDAC        ....  1.000000
   Perturbative correction              ....  0.000000
   Density functional embedding theory  .... OFF
   NL short-range parameter             ....  4.800000
 RI-approximation to the Coulomb term is turned on
   Number of AuxJ basis functions       .... 1478
   RIJ-COSX (HFX calculated with COS-X)).... on


General Settings:
 Integral files         IntName         .... orc_dy01_b3lyp_meth_uvv
 Hartree-Fock type      HFTyp           .... RHF
 Total Charge           Charge          ....    1
 Multiplicity           Mult            ....    1
 Number of Electrons    NEL             ....  174
 Basis Dimension        Dim             ....  496
 Nuclear Repulsion      ENuc            ....   2059.7201211553 Eh

Convergence Acceleration:
 DIIS                   CNVDIIS         .... on
   Start iteration      DIISMaxIt       ....    12
   Startup error        DIISStart       ....  0.200000
   # of expansion vecs  DIISMaxEq       ....     5
   Bias factor          DIISBfac        ....   1.050
   Max. coefficient     DIISMaxC        ....  10.000
 Trust-Rad. Augm. Hess. CNVTRAH         .... auto
   Auto Start mean grad. ratio tolernc. ....  1.125000
   Auto Start start iteration           ....    20
   Auto Start num. interpolation iter.  ....    10
   Max. Number of Micro iterations      ....    16
   Max. Number of Macro iterations      .... Maxiter - #DIIS iter
   Number of Davidson start vectors     ....     2
   Converg. threshold I  (grad. norm)   ....   5.000e-05
   Converg. threshold II (energy diff.) ....   1.000e-06
   Grad. Scal. Fac. for Micro threshold ....   0.100
   Minimum threshold for Micro iter.    ....   0.010
   NR start threshold (gradient norm)   ....   0.001
   Initial trust radius                 ....   0.400
   Minimum AH scaling param. (alpha)    ....   1.000
   Maximum AH scaling param. (alpha)    .... 1000.000
   Orbital update algorithm             .... Taylor
   White noise on init. David. guess    .... on
   Maximum white noise                  ....   0.010
   Quad. conv. algorithm                .... NR
 SOSCF                  CNVSOSCF        .... on
   Start iteration      SOSCFMaxIt      ....   150
   Startup grad/error   SOSCFStart      ....  0.003300
 Level Shifting         CNVShift        .... on
   Level shift para.    LevelShift      ....    0.2500
   Turn off err/grad.   ShiftErr        ....    0.0010
 Zerner damping         CNVZerner       .... off
 Static damping         CNVDamp         .... on
   Fraction old density DampFac         ....    0.7000
   Max. Damping (<1)    DampMax         ....    0.9800
   Min. Damping (>=0)   DampMin         ....    0.0000
   Turn off err/grad.   DampErr         ....    0.1000
 Fernandez-Rico         CNVRico         .... off

SCF Procedure:
 Maximum # iterations   MaxIter         ....   125
 SCF integral mode      SCFMode         .... Direct
   Integral package                     .... SHARK and LIBINT hybrid scheme
 Reset frequency        DirectResetFreq ....    20
 Integral Threshold     Thresh          ....  1.000e-10 Eh
 Primitive CutOff       TCut            ....  1.000e-11 Eh

Convergence Tolerance:
 Convergence Check Mode ConvCheckMode   .... Total+1el-Energy
 Convergence forced     ConvForced      .... 1
 Energy Change          TolE            ....  1.000e-06 Eh
 1-El. energy change                    ....  1.000e-03 Eh
 Orbital Gradient       TolG            ....  5.000e-05
 Orbital Rotation angle TolX            ....  5.000e-05
 DIIS Error             TolErr          ....  1.000e-06


Diagonalization of the overlap matrix:
Smallest eigenvalue                        ... 1.404e-07
Time for diagonalization                   ...    0.037 sec
Threshold for overlap eigenvalues          ... 1.000e-08
Number of eigenvalues below threshold      ... 0
Time for construction of square roots      ...    0.058 sec
Total time needed                          ...    0.126 sec

Time for model grid setup =    1.028 sec

------------------------------
INITIAL GUESS: MODEL POTENTIAL
------------------------------
Loading Hartree-Fock densities                     ... done
Calculating cut-offs                               ... done
Initializing the effective Hamiltonian             ... done
Setting up the integral package (SHARK)            ... done
Starting the Coulomb interaction                   ... done (   0.4 sec)
Reading the grid                                   ... done
Mapping shells                                     ... done
Starting the XC term evaluation                    ... done (   0.1 sec)
  promolecular density results
     # of electrons  =    175.000994938
     EX              =   -138.380481371
     EC              =     -5.875931009
     EX+EC           =   -144.256412380
Transforming the Hamiltonian                       ... done (   0.0 sec)
Diagonalizing the Hamiltonian                      ... done (   0.0 sec)
Back transforming the eigenvectors                 ... done (   0.0 sec)
Now organizing SCF variables                       ... done
                      ------------------
                      INITIAL GUESS DONE (   1.7 sec)
                      ------------------
-------------------
DFT GRID GENERATION
-------------------

General Integration Accuracy     IntAcc      ... 4.388
Radial Grid Type                 RadialGrid  ... OptM3 with GC (2021)
Angular Grid (max. ang.)         AngularGrid ... 4 (Lebedev-302)
Angular grid pruning method      GridPruning ... 4 (adaptive)
Weight generation scheme         WeightScheme... Becke
Basis function cutoff            BFCut       ... 1.0000e-10
Integration weight cutoff        WCut        ... 1.0000e-14
Angular grids for H and He will be reduced by one unit
Partially contracted basis set               ... off
Rotationally invariant grid construction     ... off

Total number of grid points                  ...   227044
Total number of batches                      ...     3572
Average number of points per batch           ...       63
Average number of grid points per atom       ...     4730
Time for grid setup =    1.308 sec

--------------------
COSX GRID GENERATION
--------------------

GRIDX 1
-------
General Integration Accuracy     IntAcc      ... 3.816
Radial Grid Type                 RadialGrid  ... OptM3 with GC (2021)
Angular Grid (max. ang.)         AngularGrid ... 1 (Lebedev-50)
Angular grid pruning method      GridPruning ... 4 (adaptive)
Weight generation scheme         WeightScheme... Becke
Basis function cutoff            BFCut       ... 1.0000e-10
Integration weight cutoff        WCut        ... 1.0000e-14
Angular grids for H and He will be reduced by one unit
Partially contracted basis set               ... on
Rotationally invariant grid construction     ... off

Total number of grid points                  ...    28856
Total number of batches                      ...      479
Average number of points per batch           ...       60
Average number of grid points per atom       ...      601
UseSFitting                                  ... on

GRIDX 2
-------
General Integration Accuracy     IntAcc      ... 4.020
Radial Grid Type                 RadialGrid  ... OptM3 with GC (2021)
Angular Grid (max. ang.)         AngularGrid ... 2 (Lebedev-110)
Angular grid pruning method      GridPruning ... 4 (adaptive)
Weight generation scheme         WeightScheme... Becke
Basis function cutoff            BFCut       ... 1.0000e-10
Integration weight cutoff        WCut        ... 1.0000e-14
Angular grids for H and He will be reduced by one unit
Partially contracted basis set               ... on
Rotationally invariant grid construction     ... off

Total number of grid points                  ...    66028
Total number of batches                      ...     1059
Average number of points per batch           ...       62
Average number of grid points per atom       ...     1376
UseSFitting                                  ... on

GRIDX 3
-------
General Integration Accuracy     IntAcc      ... 4.338
Radial Grid Type                 RadialGrid  ... OptM3 with GC (2021)
Angular Grid (max. ang.)         AngularGrid ... 3 (Lebedev-194)
Angular grid pruning method      GridPruning ... 4 (adaptive)
Weight generation scheme         WeightScheme... Becke
Basis function cutoff            BFCut       ... 1.0000e-10
Integration weight cutoff        WCut        ... 1.0000e-14
Angular grids for H and He will be reduced by one unit
Partially contracted basis set               ... on
Rotationally invariant grid construction     ... off

Total number of grid points                  ...   142221
Total number of batches                      ...     2244
Average number of points per batch           ...       63
Average number of grid points per atom       ...     2963
UseSFitting                                  ... on

Time for X-Grid setup             =    2.441 sec


--------------------
CPCM SOLVATION MODEL
--------------------
CPCM parameters:
  Epsilon                                         ...      32.6130
  Refrac                                          ...       1.3288
  Rsolv                                           ...       1.3000
  Surface type                                    ... GAUSSIAN VDW
  Epsilon function type                           ...         CPCM
Solvent:                                     ... METHANOL
SMD-CDS solvent descriptors:
  Soln                                       ...    1.3288
  Soln25                                     ...    1.3265
  Sola                                       ...    0.4300
  Solb                                       ...    0.4700
  Solg                                       ...   31.7700
  Solc                                       ...    0.0000
  Solh                                       ...    0.0000
Radii:
 Radius for N  used is    3.5716 Bohr (=   1.8900 Ang.)
 Radius for C  used is    3.4960 Bohr (=   1.8500 Ang.)
 Radius for H  used is    2.2677 Bohr (=   1.2000 Ang.)
Calculating surface                               ...        done! (  0.0s)
GEPOL surface points                              ...         2700
GEPOL Volume                                      ...    2344.1740
GEPOL Surface-area                                ...    1289.8477
Calculating surface distance matrix               ...        done! (  0.1s)
Performing Cholesky decomposition & store         ...        done! (  0.4s)
Overall time for CPCM initialization              ...                 0.5s
--------------
SCF ITERATIONS
--------------
ITER       Energy         Delta-E        Max-DP      RMS-DP      [F,P]     Damp
               ***  Starting incremental Fock matrix formation  ***
  0   -998.5725508049   0.00000000000012.22496104  0.06687276  0.1656273 0.7000
                      *** Initiating the SOSCF procedure ***
                      *** Re-Reading the Fockian *** 
                      *** Removing any level shift *** 
ITER      Energy       Delta-E        Grad      Rot      Max-DP    RMS-DP
  1   -998.77099638  -0.1984455769  0.003164  0.003164 21.374519  0.106036
               *** Restarting incremental Fock matrix formation ***
  2   -998.91481923  -0.1438228529  0.027705  0.052567 15.110229  0.119498
  3   -998.87546439   0.0393548435  0.029252  0.044121  8.458040  0.057943
  4   -999.02229406  -0.1468296662  0.005361  0.027815 10.083390  0.068575
  5   -999.01742555   0.0048685078  0.008276  0.020503  3.152938  0.018278
  6   -999.02660495  -0.0091793981  0.001383  0.007898 16.696074  0.102864
  7   -999.02643470   0.0001702453  0.002415  0.005307  3.270241  0.019178
  8   -999.02673806  -0.0003033621  0.000211  0.001105  9.536792  0.070647
  9   -999.02673064   0.0000074265  0.000400  0.000770  4.831307  0.028530
 10   -999.02674307  -0.0000124319  0.000071  0.000213 20.352119  0.103134
 11   -999.02674232   0.0000007515  0.000074  0.000162 21.295382  0.086703
 12   -999.02674188   0.0000004380  0.000089  0.000129 15.287434  0.075396
 13   -999.02674253  -0.0000006541  0.000100  0.000097 17.910081  0.094851
 14   -999.02674131   0.0000012233  0.000056  0.000141  7.392582  0.043221
 15   -999.02674095   0.0000003610  0.000083  0.000078  8.974676  0.068088
 16   -999.02674078   0.0000001692  0.000043  0.000071 15.648216  0.084255
 17   -999.02673911   0.0000016704  0.000081  0.000062 11.768189  0.044970
 18   -999.02674073  -0.0000016209  0.000051  0.000098 15.284717  0.091010
 19   -999.02674022   0.0000005066  0.000072  0.000060  7.579561  0.039154

 WARNING: the maximum gradient error descreased on average only by a factor   1.0
          during the last 20 iterations

                      *** Initiating the TRAH-SCF procedure ***

              ***Rediagonalizing the Fockian in SOSCF/NRSCF***

TRAH GRIDX
----------

General Integration Accuracy     IntAcc      ... 3.067
Radial Grid Type                 RadialGrid  ... OptM3 with GC (2021)
Angular Grid (max. ang.)         AngularGrid ... 1 (Lebedev-50)
Angular grid pruning method      GridPruning ... 4 (adaptive)
Weight generation scheme         WeightScheme... Becke
Basis function cutoff            BFCut       ... 1.0000e-10
Integration weight cutoff        WCut        ... 1.0000e-14
Angular grids for H and He will be reduced by one unit
Partially contracted basis set               ... on
Rotationally invariant grid construction     ... off

Total number of grid points                  ...    15266
Total number of batches                      ...      267
Average number of points per batch           ...       57
Average number of grid points per atom       ...      318


TRAH GRID
---------

General Integration Accuracy     IntAcc      ... 3.467
Radial Grid Type                 RadialGrid  ... OptM3 with GC (2021)
Angular Grid (max. ang.)         AngularGrid ... 1 (Lebedev-50)
Angular grid pruning method      GridPruning ... 4 (adaptive)
Weight generation scheme         WeightScheme... Becke
Basis function cutoff            BFCut       ... 1.0000e-10
Integration weight cutoff        WCut        ... 1.0000e-14
Angular grids for H and He will be reduced by one unit
Partially contracted basis set               ... off
Rotationally invariant grid construction     ... off

Total number of grid points                  ...    32927
Total number of batches                      ...      540
Average number of points per batch           ...       60
Average number of grid points per atom       ...      686

 --------------------------------------------------------------------------------------------
   Iter.        energy            ||Error||_2        Shift      TRadius  Mac/Mic        Rej.
 --------------------------------------------------------------------------------------------
    0       -999.026740937585     7.351313e-03                     0.400 (TRAH MAcro)   No
    0     dE    -4.002410e-06     9.968117e-03    -8.0048e-06      0.001 (TRAH MIcro)
    0     dE    -6.632454e-06     2.278214e-04    -1.3265e-05      0.002 (TRAH MIcro)
    1       -999.026746800106     2.280156e-04                           (NR   MAcro)
    1     dE    -3.264632e-09     6.219543e-05                           (NR   MIcro)
    1     dE    -3.523211e-09     2.952898e-05                           (NR   MIcro)
    1     dE    -3.590404e-09     5.964161e-06                           (NR   MIcro)
    1     dE    -3.592951e-09     2.063524e-06                           (NR   MIcro)
    2       -999.026746805025     3.051743e-06                           (NR   MAcro)

               *****************************************************
               *                     SUCCESS                       *
               *           SCF CONVERGED AFTER  29 CYCLES          *
               *****************************************************

Old exchange energy                            =    -28.108245500 Eh
New exchange energy                            =    -28.108225040 Eh
Exchange energy change after final integration =      0.000020460 Eh
Total energy after final integration           =   -999.026726345 Eh
Final COS-X integration done in                =     9.885 sec

SMD CDS free energy correction energy :                -2.95295     Kcal/mol
Total Energy after SMD CDS correction =              -999.031432170 Eh

----------------
TOTAL SCF ENERGY
----------------

Total Energy       :         -999.03143217 Eh          -27185.02733 eV

Components:
Nuclear Repulsion  :         2059.72012116 Eh           56047.83391 eV
Electronic Energy  :        -3058.75155333 Eh          -83232.86124 eV
One Electron Energy:        -5420.40510009 Eh         -147496.72136 eV
Two Electron Energy:         2361.65354677 Eh           64263.86012 eV
Max COSX asymmetry :            0.00008894 Eh               0.00242 eV
CPCM Dielectric    :           -0.08325499 Eh              -2.26548 eV
SMD CDS (Gcds)     :           -0.00470582 Eh              -0.12805 eV

Virial components:
Potential Energy   :        -1992.39136086 Eh          -54215.72520 eV
Kinetic Energy     :          993.35992869 Eh           27030.69787 eV
Virial Ratio       :            2.00570941


DFT components:
N(Alpha)           :       87.000110793710 electrons
N(Beta)            :       87.000110793710 electrons
N(Total)           :      174.000221587420 electrons
E(X)               :     -111.555602691474 Eh       
E(C)               :       -6.884526001874 Eh       
E(XC)              :     -118.440128693347 Eh       
DFET-embed. en.    :        0.000000000000 Eh       
CPCM Solvation Model Properties:
Surface-charge          :           -1.07421294
Charge-correction       :            0.00784749 Eh               0.21354 eV
Free-energy (cav+disp)  :           -0.00470582 Eh              -0.12805 eV

---------------
SCF CONVERGENCE
---------------

  Last Energy change         ...   -4.9189e-09  Tolerance :   1.0000e-06
  Last Orbital Gradient      ...    3.0517e-06  Tolerance :   5.0000e-05
  Last Orbital Rotation      ...    4.3659e-05

             **** THE GBW FILE WAS UPDATED (orc_dy01_b3lyp_meth_uvv.gbw) ****
             **** DENSITY orc_dy01_b3lyp_meth_uvv.scfp WAS UPDATED ****
             **** ENERGY FILE WAS UPDATED (orc_dy01_b3lyp_meth_uvv.en.tmp) ****
             **** THE GBW FILE WAS UPDATED (orc_dy01_b3lyp_meth_uvv.gbw) ****
             **** DENSITY orc_dy01_b3lyp_meth_uvv.scfp WAS UPDATED ****
----------------
ORBITAL ENERGIES
----------------

  NO   OCC          E(Eh)            E(eV) 
   0   2.0000     -14.438833      -392.9006 
   1   2.0000     -14.384671      -391.4268 
   2   2.0000     -10.274747      -279.5901 
   3   2.0000     -10.262669      -279.2614 
   4   2.0000     -10.247607      -278.8516 
   5   2.0000     -10.242829      -278.7215 
   6   2.0000     -10.229376      -278.3555 
   7   2.0000     -10.225321      -278.2451 
   8   2.0000     -10.225261      -278.2435 
   9   2.0000     -10.213987      -277.9367 
  10   2.0000     -10.212205      -277.8882 
  11   2.0000     -10.208464      -277.7864 
  12   2.0000     -10.208189      -277.7789 
  13   2.0000     -10.205882      -277.7162 
  14   2.0000     -10.202403      -277.6215 
  15   2.0000     -10.200253      -277.5630 
  16   2.0000     -10.195387      -277.4306 
  17   2.0000     -10.192526      -277.3527 
  18   2.0000     -10.189097      -277.2594 
  19   2.0000     -10.188799      -277.2513 
  20   2.0000     -10.188395      -277.2403 
  21   2.0000     -10.180464      -277.0245 
  22   2.0000     -10.174859      -276.8720 
  23   2.0000     -10.173875      -276.8452 
  24   2.0000     -10.164588      -276.5925 
  25   2.0000      -1.043871       -28.4052 
  26   2.0000      -0.971842       -26.4452 
  27   2.0000      -0.887863       -24.1600 
  28   2.0000      -0.861340       -23.4382 
  29   2.0000      -0.857284       -23.3279 
  30   2.0000      -0.830397       -22.5963 
  31   2.0000      -0.805350       -21.9147 
  32   2.0000      -0.781876       -21.2759 
  33   2.0000      -0.773170       -21.0390 
  34   2.0000      -0.760856       -20.7039 
  35   2.0000      -0.759981       -20.6801 
  36   2.0000      -0.741099       -20.1663 
  37   2.0000      -0.721011       -19.6197 
  38   2.0000      -0.679478       -18.4895 
  39   2.0000      -0.672289       -18.2939 
  40   2.0000      -0.660091       -17.9620 
  41   2.0000      -0.645258       -17.5584 
  42   2.0000      -0.631513       -17.1844 
  43   2.0000      -0.613103       -16.6834 
  44   2.0000      -0.605191       -16.4681 
  45   2.0000      -0.589974       -16.0540 
  46   2.0000      -0.567630       -15.4460 
  47   2.0000      -0.547519       -14.8987 
  48   2.0000      -0.544843       -14.8259 
  49   2.0000      -0.530423       -14.4335 
  50   2.0000      -0.526220       -14.3192 
  51   2.0000      -0.499637       -13.5958 
  52   2.0000      -0.497331       -13.5331 
  53   2.0000      -0.480925       -13.0866 
  54   2.0000      -0.475978       -12.9520 
  55   2.0000      -0.471467       -12.8293 
  56   2.0000      -0.465084       -12.6556 
  57   2.0000      -0.462237       -12.5781 
  58   2.0000      -0.450441       -12.2571 
  59   2.0000      -0.447892       -12.1878 
  60   2.0000      -0.439567       -11.9612 
  61   2.0000      -0.437987       -11.9182 
  62   2.0000      -0.435181       -11.8419 
  63   2.0000      -0.424733       -11.5576 
  64   2.0000      -0.418772       -11.3954 
  65   2.0000      -0.410938       -11.1822 
  66   2.0000      -0.402262       -10.9461 
  67   2.0000      -0.397889       -10.8271 
  68   2.0000      -0.389806       -10.6072 
  69   2.0000      -0.386733       -10.5235 
  70   2.0000      -0.381782       -10.3888 
  71   2.0000      -0.374975       -10.2036 
  72   2.0000      -0.371193       -10.1007 
  73   2.0000      -0.364054        -9.9064 
  74   2.0000      -0.357188        -9.7196 
  75   2.0000      -0.355185        -9.6651 
  76   2.0000      -0.353698        -9.6246 
  77   2.0000      -0.345582        -9.4038 
  78   2.0000      -0.340869        -9.2755 
  79   2.0000      -0.337116        -9.1734 
  80   2.0000      -0.331472        -9.0198 
  81   2.0000      -0.304629        -8.2894 
  82   2.0000      -0.279318        -7.6006 
  83   2.0000      -0.277415        -7.5488 
  84   2.0000      -0.255781        -6.9602 
  85   2.0000      -0.240975        -6.5573 
  86   2.0000      -0.191124        -5.2007 
  87   0.0000      -0.095646        -2.6027 
  88   0.0000      -0.049427        -1.3450 
  89   0.0000      -0.039754        -1.0818 
  90   0.0000      -0.015912        -0.4330 
  91   0.0000      -0.009883        -0.2689 
  92   0.0000       0.003412         0.0928 
  93   0.0000       0.005525         0.1504 
  94   0.0000       0.014167         0.3855 
  95   0.0000       0.016903         0.4600 
  96   0.0000       0.018836         0.5126 
  97   0.0000       0.023449         0.6381 
  98   0.0000       0.030341         0.8256 
  99   0.0000       0.032382         0.8812 
 100   0.0000       0.036039         0.9807 
 101   0.0000       0.037232         1.0131 
 102   0.0000       0.044043         1.1985 
 103   0.0000       0.046170         1.2564 
 104   0.0000       0.047486         1.2922 
 105   0.0000       0.051844         1.4107 
 106   0.0000       0.056290         1.5317 
 107   0.0000       0.060486         1.6459 
 108   0.0000       0.063400         1.7252 
 109   0.0000       0.065129         1.7723 
 110   0.0000       0.068498         1.8639 
 111   0.0000       0.070530         1.9192 
 112   0.0000       0.074809         2.0357 
 113   0.0000       0.080931         2.2023 
 114   0.0000       0.082221         2.2373 
 115   0.0000       0.082705         2.2505 
 116   0.0000       0.086547         2.3551 
 117   0.0000       0.090130         2.4525 
 118   0.0000       0.092550         2.5184 
 119   0.0000       0.095181         2.5900 
 120   0.0000       0.097626         2.6565 
 121   0.0000       0.098866         2.6903 
 122   0.0000       0.107557         2.9268 
 123   0.0000       0.110685         3.0119 
 124   0.0000       0.115952         3.1552 
 125   0.0000       0.117811         3.2058 
 126   0.0000       0.119985         3.2650 
 127   0.0000       0.122145         3.3237 
 128   0.0000       0.126581         3.4444 
 129   0.0000       0.129481         3.5234 
 130   0.0000       0.132588         3.6079 
 131   0.0000       0.133463         3.6317 
 132   0.0000       0.138188         3.7603 
 133   0.0000       0.138355         3.7648 
 134   0.0000       0.141150         3.8409 
 135   0.0000       0.146916         3.9978 
 136   0.0000       0.149599         4.0708 
 137   0.0000       0.152021         4.1367 
 138   0.0000       0.154109         4.1935 
 139   0.0000       0.155327         4.2267 
 140   0.0000       0.159819         4.3489 
 141   0.0000       0.162245         4.4149 
 142   0.0000       0.166246         4.5238 
 143   0.0000       0.168218         4.5775 
 144   0.0000       0.172649         4.6980 
 145   0.0000       0.173324         4.7164 
 146   0.0000       0.179791         4.8924 
 147   0.0000       0.180631         4.9152 
 148   0.0000       0.182619         4.9693 
 149   0.0000       0.186108         5.0643 
 150   0.0000       0.187943         5.1142 
 151   0.0000       0.190340         5.1794 
 152   0.0000       0.192551         5.2396 
 153   0.0000       0.193834         5.2745 
 154   0.0000       0.196528         5.3478 
 155   0.0000       0.199007         5.4153 
 156   0.0000       0.200230         5.4485 
 157   0.0000       0.201913         5.4943 
 158   0.0000       0.203803         5.5458 
 159   0.0000       0.205202         5.5838 
 160   0.0000       0.206298         5.6137 
 161   0.0000       0.211109         5.7446 
 162   0.0000       0.211639         5.7590 
 163   0.0000       0.215554         5.8655 
 164   0.0000       0.219916         5.9842 
 165   0.0000       0.222364         6.0508 
 166   0.0000       0.224174         6.1001 
 167   0.0000       0.226170         6.1544 
 168   0.0000       0.228722         6.2238 
 169   0.0000       0.231180         6.2907 
 170   0.0000       0.232890         6.3373 
 171   0.0000       0.234872         6.3912 
 172   0.0000       0.237839         6.4719 
 173   0.0000       0.240281         6.5384 
 174   0.0000       0.243177         6.6172 
 175   0.0000       0.247543         6.7360 
 176   0.0000       0.252428         6.8689 
 177   0.0000       0.254178         6.9165 
 178   0.0000       0.255187         6.9440 
 179   0.0000       0.256085         6.9684 
 180   0.0000       0.257959         7.0194 
 181   0.0000       0.261078         7.1043 
 182   0.0000       0.262977         7.1560 
 183   0.0000       0.264590         7.1999 
 184   0.0000       0.266037         7.2392 
 185   0.0000       0.271591         7.3904 
 186   0.0000       0.273768         7.4496 
 187   0.0000       0.275350         7.4927 
 188   0.0000       0.277606         7.5540 
 189   0.0000       0.282423         7.6851 
 190   0.0000       0.283314         7.7094 
 191   0.0000       0.288613         7.8536 
 192   0.0000       0.292080         7.9479 
 193   0.0000       0.294636         8.0174 
 194   0.0000       0.296363         8.0645 
 195   0.0000       0.299812         8.1583 
 196   0.0000       0.301674         8.2090 
 197   0.0000       0.305130         8.3030 
 198   0.0000       0.306553         8.3417 
 199   0.0000       0.307936         8.3794 
 200   0.0000       0.311369         8.4728 
 201   0.0000       0.314484         8.5575 
 202   0.0000       0.319687         8.6991 
 203   0.0000       0.323211         8.7950 
 204   0.0000       0.326968         8.8972 
 205   0.0000       0.329240         8.9591 
 206   0.0000       0.333042         9.0625 
 207   0.0000       0.336021         9.1436 
 208   0.0000       0.339870         9.2483 
 209   0.0000       0.342988         9.3332 
 210   0.0000       0.345201         9.3934 
 211   0.0000       0.349218         9.5027 
 212   0.0000       0.353994         9.6327 
 213   0.0000       0.362180         9.8554 
 214   0.0000       0.365855         9.9554 
 215   0.0000       0.369037        10.0420 
 216   0.0000       0.370198        10.0736 
 217   0.0000       0.374379        10.1874 
 218   0.0000       0.378318        10.2946 
 219   0.0000       0.392131        10.6704 
 220   0.0000       0.392249        10.6736 
 221   0.0000       0.397218        10.8089 
 222   0.0000       0.398104        10.8330 
 223   0.0000       0.404292        11.0014 
 224   0.0000       0.407557        11.0902 
 225   0.0000       0.416581        11.3358 
 226   0.0000       0.422517        11.4973 
 227   0.0000       0.430127        11.7044 
 228   0.0000       0.435838        11.8597 
 229   0.0000       0.437845        11.9144 
 230   0.0000       0.444954        12.1078 
 231   0.0000       0.453334        12.3358 
 232   0.0000       0.458862        12.4863 
 233   0.0000       0.470261        12.7964 
 234   0.0000       0.476513        12.9666 
 235   0.0000       0.480842        13.0844 
 236   0.0000       0.489772        13.3274 
 237   0.0000       0.502039        13.6612 
 238   0.0000       0.506255        13.7759 
 239   0.0000       0.520960        14.1760 
 240   0.0000       0.524893        14.2831 
 241   0.0000       0.542418        14.7599 
 242   0.0000       0.559686        15.2298 
 243   0.0000       0.580679        15.8011 
 244   0.0000       0.599925        16.3248 
 245   0.0000       0.609728        16.5915 
 246   0.0000       0.631180        17.1753 
 247   0.0000       0.636928        17.3317 
 248   0.0000       0.665724        18.1153 
 249   0.0000       0.673977        18.3399 
 250   0.0000       0.676079        18.3970 
 251   0.0000       0.681237        18.5374 
 252   0.0000       0.686176        18.6718 
 253   0.0000       0.690677        18.7943 
 254   0.0000       0.697310        18.9748 
 255   0.0000       0.701758        19.0958 
 256   0.0000       0.706682        19.2298 
 257   0.0000       0.714273        19.4364 
 258   0.0000       0.717041        19.5117 
 259   0.0000       0.721373        19.6296 
 260   0.0000       0.729588        19.8531 
 261   0.0000       0.733466        19.9586 
 262   0.0000       0.735789        20.0218 
 263   0.0000       0.738983        20.1087 
 264   0.0000       0.740675        20.1548 
 265   0.0000       0.742942        20.2165 
 266   0.0000       0.751163        20.4402 
 267   0.0000       0.754428        20.5290 
 268   0.0000       0.761300        20.7160 
 269   0.0000       0.770001        20.9528 
 270   0.0000       0.774293        21.0696 
 271   0.0000       0.779876        21.2215 
 272   0.0000       0.783401        21.3174 
 273   0.0000       0.788132        21.4462 
 274   0.0000       0.795464        21.6457 
 275   0.0000       0.798503        21.7284 
 276   0.0000       0.802835        21.8463 
 277   0.0000       0.805064        21.9069 
 278   0.0000       0.812745        22.1159 
 279   0.0000       0.820362        22.3232 
 280   0.0000       0.825214        22.4552 
 281   0.0000       0.827675        22.5222 
 282   0.0000       0.836258        22.7557 
 283   0.0000       0.844874        22.9902 
 284   0.0000       0.849451        23.1147 
 285   0.0000       0.859311        23.3830 
 286   0.0000       0.861642        23.4465 
 287   0.0000       0.869566        23.6621 
 288   0.0000       0.877061        23.8660 
 289   0.0000       0.886608        24.1258 
 290   0.0000       0.895503        24.3679 
 291   0.0000       0.897866        24.4322 
 292   0.0000       0.905288        24.6341 
 293   0.0000       0.907104        24.6836 
 294   0.0000       0.920296        25.0425 
 295   0.0000       0.924335        25.1524 
 296   0.0000       0.931867        25.3574 
 297   0.0000       0.936664        25.4879 
 298   0.0000       0.939709        25.5708 
 299   0.0000       0.948303        25.8046 
 300   0.0000       0.950978        25.8774 
 301   0.0000       0.954166        25.9642 
 302   0.0000       0.967019        26.3139 
 303   0.0000       0.967244        26.3200 
 304   0.0000       0.971034        26.4232 
 305   0.0000       0.981270        26.7017 
 306   0.0000       0.991653        26.9842 
 307   0.0000       1.012687        27.5566 
 308   0.0000       1.014455        27.6047 
 309   0.0000       1.025669        27.9099 
 310   0.0000       1.031511        28.0688 
 311   0.0000       1.036111        28.1940 
 312   0.0000       1.038530        28.2598 
 313   0.0000       1.049287        28.5526 
 314   0.0000       1.053155        28.6578 
 315   0.0000       1.060842        28.8670 
 316   0.0000       1.069095        29.0916 
 317   0.0000       1.070408        29.1273 
 318   0.0000       1.074844        29.2480 
 319   0.0000       1.088637        29.6233 
 320   0.0000       1.092021        29.7154 
 321   0.0000       1.108931        30.1756 
 322   0.0000       1.114145        30.3174 
 323   0.0000       1.131524        30.7903 
 324   0.0000       1.147691        31.2303 
 325   0.0000       1.150894        31.3174 
 326   0.0000       1.157559        31.4988 
 327   0.0000       1.171045        31.8657 
 328   0.0000       1.178951        32.0809 
 329   0.0000       1.181248        32.1434 
 330   0.0000       1.183959        32.2172 
 331   0.0000       1.193963        32.4894 
 332   0.0000       1.197652        32.5898 
 333   0.0000       1.204086        32.7649 
 334   0.0000       1.206954        32.8429 
 335   0.0000       1.214366        33.0446 
 336   0.0000       1.219985        33.1975 
 337   0.0000       1.225821        33.3563 
 338   0.0000       1.230322        33.4788 
 339   0.0000       1.243288        33.8316 
 340   0.0000       1.250152        34.0184 
 341   0.0000       1.252435        34.0805 
 342   0.0000       1.260702        34.3055 
 343   0.0000       1.272493        34.6263 
 344   0.0000       1.274833        34.6900 
 345   0.0000       1.288414        35.0595 
 346   0.0000       1.297835        35.3159 
 347   0.0000       1.319001        35.8919 
 348   0.0000       1.323864        36.0242 
 349   0.0000       1.333825        36.2952 
 350   0.0000       1.341736        36.5105 
 351   0.0000       1.361664        37.0528 
 352   0.0000       1.363955        37.1151 
 353   0.0000       1.367683        37.2165 
 354   0.0000       1.380995        37.5788 
 355   0.0000       1.384678        37.6790 
 356   0.0000       1.392920        37.9033 
 357   0.0000       1.398186        38.0466 
 358   0.0000       1.402318        38.1590 
 359   0.0000       1.418360        38.5955 
 360   0.0000       1.422439        38.7065 
 361   0.0000       1.442994        39.2658 
 362   0.0000       1.446554        39.3627 
 363   0.0000       1.455090        39.5950 
 364   0.0000       1.460645        39.7462 
 365   0.0000       1.462164        39.7875 
 366   0.0000       1.468533        39.9608 
 367   0.0000       1.473601        40.0987 
 368   0.0000       1.481266        40.3073 
 369   0.0000       1.485376        40.4191 
 370   0.0000       1.487605        40.4798 
 371   0.0000       1.493850        40.6497 
 372   0.0000       1.502760        40.8922 
 373   0.0000       1.510536        41.1038 
 374   0.0000       1.523184        41.4479 
 375   0.0000       1.532769        41.7088 
 376   0.0000       1.578856        42.9629 
 377   0.0000       1.624640        44.2087 
 378   0.0000       1.629901        44.3519 
 379   0.0000       1.641525        44.6682 
 380   0.0000       1.653437        44.9923 
 381   0.0000       1.668045        45.3898 
 382   0.0000       1.688901        45.9573 
 383   0.0000       1.714096        46.6429 
 384   0.0000       1.737428        47.2778 
 385   0.0000       1.742122        47.4055 
 386   0.0000       1.768286        48.1175 
 387   0.0000       1.785730        48.5922 
 388   0.0000       1.808447        49.2103 
 389   0.0000       1.823611        49.6230 
 390   0.0000       1.831646        49.8416 
 391   0.0000       1.839165        50.0462 
 392   0.0000       1.844475        50.1907 
 393   0.0000       1.853070        50.4246 
 394   0.0000       1.858090        50.5612 
 395   0.0000       1.868926        50.8561 
 396   0.0000       1.880200        51.1629 
 397   0.0000       1.898163        51.6516 
 398   0.0000       1.903085        51.7856 
 399   0.0000       1.916552        52.1520 
 400   0.0000       1.916756        52.1576 
 401   0.0000       1.927789        52.4578 
 402   0.0000       1.941409        52.8284 
 403   0.0000       1.949493        53.0484 
 404   0.0000       1.954176        53.1758 
 405   0.0000       1.963099        53.4186 
 406   0.0000       1.969465        53.5919 
 407   0.0000       1.974551        53.7303 
 408   0.0000       1.981435        53.9176 
 409   0.0000       1.997366        54.3511 
 410   0.0000       2.004988        54.5585 
 411   0.0000       2.014777        54.8249 
 412   0.0000       2.018236        54.9190 
 413   0.0000       2.027060        55.1591 
 414   0.0000       2.037783        55.4509 
 415   0.0000       2.040658        55.5291 
 416   0.0000       2.042995        55.5927 
 417   0.0000       2.064674        56.1826 
 418   0.0000       2.079503        56.5862 
 419   0.0000       2.097619        57.0791 
 420   0.0000       2.114782        57.5461 
 421   0.0000       2.126071        57.8533 
 422   0.0000       2.137478        58.1637 
 423   0.0000       2.161277        58.8113 
 424   0.0000       2.167669        58.9853 
 425   0.0000       2.175727        59.2046 
 426   0.0000       2.184000        59.4297 
 427   0.0000       2.185076        59.4589 
 428   0.0000       2.195057        59.7305 
 429   0.0000       2.209612        60.1266 
 430   0.0000       2.222206        60.4693 
 431   0.0000       2.234840        60.8131 
 432   0.0000       2.243648        61.0528 
 433   0.0000       2.255444        61.3738 
 434   0.0000       2.262442        61.5642 
 435   0.0000       2.269602        61.7590 
 436   0.0000       2.280545        62.0568 
 437   0.0000       2.290573        62.3297 
 438   0.0000       2.295580        62.4659 
 439   0.0000       2.309123        62.8344 
 440   0.0000       2.316548        63.0365 
 441   0.0000       2.319333        63.1123 
 442   0.0000       2.325545        63.2813 
 443   0.0000       2.332735        63.4769 
 444   0.0000       2.345606        63.8272 
 445   0.0000       2.358488        64.1777 
 446   0.0000       2.377244        64.6881 
 447   0.0000       2.386428        64.9380 
 448   0.0000       2.389195        65.0133 
 449   0.0000       2.400055        65.3088 
 450   0.0000       2.419220        65.8303 
 451   0.0000       2.427747        66.0623 
 452   0.0000       2.431001        66.1509 
 453   0.0000       2.454062        66.7784 
 454   0.0000       2.480106        67.4871 
 455   0.0000       2.490743        67.7766 
 456   0.0000       2.524344        68.6909 
 457   0.0000       2.543484        69.2117 
 458   0.0000       2.582799        70.2815 
 459   0.0000       2.584355        70.3239 
 460   0.0000       2.588859        70.4464 
 461   0.0000       2.600566        70.7650 
 462   0.0000       2.629009        71.5390 
 463   0.0000       2.640243        71.8447 
 464   0.0000       2.655974        72.2727 
 465   0.0000       2.662635        72.4540 
 466   0.0000       2.672152        72.7130 
 467   0.0000       2.676828        72.8402 
 468   0.0000       2.683296        73.0162 
 469   0.0000       2.692389        73.2636 
 470   0.0000       2.697411        73.4003 
 471   0.0000       2.716512        73.9200 
 472   0.0000       2.721884        74.0662 
 473   0.0000       2.739163        74.5364 
 474   0.0000       2.768494        75.3345 
 475   0.0000       2.784863        75.7800 
 476   0.0000       2.804977        76.3273 
 477   0.0000       2.807022        76.3830 
 478   0.0000       2.835807        77.1662 
 479   0.0000       2.857847        77.7660 
 480   0.0000       2.866063        77.9895 
 481   0.0000       2.893582        78.7384 
 482   0.0000       2.903851        79.0178 
 483   0.0000       2.918100        79.4055 
 484   0.0000       2.950708        80.2929 
 485   0.0000       2.963022        80.6279 
 486   0.0000       2.977593        81.0244 
 487   0.0000       3.021441        82.2176 
 488   0.0000       3.075869        83.6986 
 489   0.0000       3.140696        85.4627 
 490   0.0000       3.161947        86.0410 
 491   0.0000       3.231588        87.9360 
 492   0.0000       3.369086        91.6775 
 493   0.0000       3.412826        92.8677 
 494   0.0000       3.477311        94.6225 
 495   0.0000       3.520222        95.7901 

                    ********************************
                    * MULLIKEN POPULATION ANALYSIS *
                    ********************************

-----------------------
MULLIKEN ATOMIC CHARGES
-----------------------
   0 N :    0.410593
   1 N :    0.073617
   2 C :   -0.337759
   3 C :    1.029901
   4 C :   -1.629701
   5 C :   -1.180668
   6 C :   -0.801542
   7 C :   -0.155106
   8 C :   -0.248767
   9 C :    2.388568
  10 C :    1.777811
  11 C :   -0.420106
  12 C :   -0.225960
  13 C :   -0.498263
  14 C :   -0.839570
  15 C :   -0.970704
  16 C :   -0.673727
  17 C :    0.160017
  18 C :    0.216647
  19 C :   -0.680462
  20 C :   -0.620496
  21 C :   -0.390124
  22 C :   -0.450105
  23 C :   -0.134445
  24 C :   -0.267985
  25 H :    0.245109
  26 H :    0.272746
  27 H :    0.249354
  28 H :    0.237980
  29 H :    0.231135
  30 H :    0.259177
  31 H :    0.242030
  32 H :    0.259856
  33 H :    0.232216
  34 H :    0.247821
  35 H :    0.224916
  36 H :    0.244977
  37 H :    0.225283
  38 H :    0.247208
  39 H :    0.237480
  40 H :    0.237630
  41 H :    0.222284
  42 H :    0.227352
  43 H :    0.230309
  44 H :    0.235675
  45 H :    0.217285
  46 H :    0.229940
  47 H :    0.210575
Sum of atomic charges:    1.0000000

--------------------------------
MULLIKEN REDUCED ORBITAL CHARGES
--------------------------------
  0 N s       :     3.113436  s :     3.113436
      pz      :     1.065353  p :     3.428988
      px      :     1.031174
      py      :     1.332461
      dz2     :     0.011060  d :     0.046983
      dxz     :     0.012719
      dyz     :     0.007994
      dx2y2   :     0.007547
      dxy     :     0.007663
  1 N s       :     3.242234  s :     3.242234
      pz      :     1.583760  p :     3.646506
      px      :     1.087717
      py      :     0.975029
      dz2     :     0.003329  d :     0.037643
      dxz     :     0.006141
      dyz     :     0.005187
      dx2y2   :     0.010454
      dxy     :     0.012531
  2 C s       :     2.791539  s :     2.791539
      pz      :     1.405964  p :     3.482175
      px      :     0.997674
      py      :     1.078537
      dz2     :     0.013783  d :     0.064045
      dxz     :     0.023251
      dyz     :     0.012361
      dx2y2   :     0.007323
      dxy     :     0.007327
  3 C s       :     2.753310  s :     2.753310
      pz      :     0.987420  p :     2.156476
      px      :     0.262110
      py      :     0.906946
      dz2     :     0.004953  d :     0.060313
      dxz     :     0.016384
      dyz     :     0.006766
      dx2y2   :     0.017712
      dxy     :     0.014499
  4 C s       :     3.773491  s :     3.773491
      pz      :     2.260579  p :     3.797587
      px      :     0.569366
      py      :     0.967642
      dz2     :     0.014241  d :     0.058624
      dxz     :     0.014077
      dyz     :     0.008049
      dx2y2   :     0.011025
      dxy     :     0.011232
  5 C s       :     3.471566  s :     3.471566
      pz      :     0.992057  p :     3.654361
      px      :     0.526135
      py      :     2.136169
      dz2     :     0.004280  d :     0.054741
      dxz     :     0.010597
      dyz     :     0.008194
      dx2y2   :     0.014398
      dxy     :     0.017271
  6 C s       :     4.133406  s :     4.133406
      pz      :     1.122013  p :     2.635640
      px      :     0.541554
      py      :     0.972073
      dz2     :     0.003994  d :     0.032497
      dxz     :     0.004673
      dyz     :     0.002095
      dx2y2   :     0.012880
      dxy     :     0.008854
  7 C s       :     3.284159  s :     3.284159
      pz      :     0.791833  p :     2.819027
      px      :     1.072542
      py      :     0.954653
      dz2     :     0.012782  d :     0.051920
      dxz     :     0.007745
      dyz     :     0.014007
      dx2y2   :     0.011217
      dxy     :     0.006168
  8 C s       :     3.389260  s :     3.389260
      pz      :     0.983807  p :     2.805637
      px      :     1.068412
      py      :     0.753418
      dz2     :     0.010355  d :     0.053870
      dxz     :     0.010978
      dyz     :     0.011265
      dx2y2   :     0.011213
      dxy     :     0.010059
  9 C s       :     0.686682  s :     0.686682
      pz      :     1.550112  p :     2.882894
      px      :     0.327436
      py      :     1.005346
      dz2     :     0.010388  d :     0.041855
[...]
B( 17-C , 32-H ) :  -0.2280 B( 17-C , 36-H ) :   1.0713 B( 18-C , 22-C ) :  -0.2521 
B( 18-C , 24-C ) :   1.5109 B( 18-C , 33-H ) :  -0.2476 B( 18-C , 37-H ) :   1.0390 
B( 19-C , 38-H ) :   0.9526 B( 19-C , 39-H ) :   0.9616 B( 19-C , 40-H ) :   0.9530 
B( 20-C , 41-H ) :   0.9706 B( 20-C , 42-H ) :   0.9517 B( 20-C , 43-H ) :   0.9687 
B( 21-C , 23-C ) :   1.5570 B( 21-C , 44-H ) :   0.9692 B( 22-C , 24-C ) :   1.6216 
B( 22-C , 45-H ) :   0.9625 B( 23-C , 46-H ) :   0.9209 B( 24-C , 47-H ) :   0.9498 


-------
TIMINGS
-------

Total SCF time: 0 days 0 hours 3 min 17 sec 

Total time                  ....     197.127 sec
Sum of individual times     ....     194.140 sec  ( 98.5%)

Fock matrix formation       ....     177.745 sec  ( 90.2%)
  Split-RI-J                ....      15.638 sec  (  8.8% of F)
  Chain of spheres X        ....     118.706 sec  ( 66.8% of F)
  XC integration            ....      22.650 sec  ( 12.7% of F)
    Basis function eval.    ....       2.501 sec  ( 11.0% of XC)
    Density eval.           ....       3.972 sec  ( 17.5% of XC)
    XC-Functional eval.     ....       3.288 sec  ( 14.5% of XC)
    XC-Potential eval.      ....       2.676 sec  ( 11.8% of XC)
Diagonalization             ....       0.153 sec  (  0.1%)
Density matrix formation    ....       0.146 sec  (  0.1%)
Population analysis         ....       0.089 sec  (  0.0%)
Initial guess               ....       0.644 sec  (  0.3%)
Orbital Transformation      ....       0.422 sec  (  0.2%)
Orbital Orthonormalization  ....       0.000 sec  (  0.0%)
DIIS solution               ....       0.058 sec  (  0.0%)
SOSCF solution              ....       1.177 sec  (  0.6%)
TRAH solution               ....       0.029 sec  (  0.0%)
Grid generation             ....       4.777 sec  (  2.4%)

Maximum memory used throughout the entire SCF-calculation: 177.0 MB


           ************************************************************
           *        Program running with 16 parallel MPI-processes    *
           *              working on a common directory               *
           ************************************************************
------------------------------------------------------------------------------
                        ORCA TD-DFT/TDA CALCULATION
------------------------------------------------------------------------------

Input orbitals are from        ... orc_dy01_b3lyp_meth_uvv.gbw
CI-vector output               ... orc_dy01_b3lyp_meth_uvv.cis
Tamm-Dancoff approximation     ... operative
CIS-Integral strategy          ... AO-integrals
Integral handling              ... AO integral Direct
Max. core memory used          ... 512 MB
Reference state                ... RHF
Generation of triplets         ... off
Follow IRoot                   ... off
Number of operators            ... 1
Orbital ranges used for CIS calculation:
 Operator 0:  Orbitals  25... 86  to  87...495
XAS localization array:
 Operator 0:  Orbitals  -1... -1

-------------------
XC-INTEGRATION GRID
-------------------

General Integration Accuracy     IntAcc      ... 3.467
Radial Grid Type                 RadialGrid  ... OptM3 with GC (2021)
Angular Grid (max. ang.)         AngularGrid ... 1 (Lebedev-50)
Angular grid pruning method      GridPruning ... 4 (adaptive)
Weight generation scheme         WeightScheme... Becke
Basis function cutoff            BFCut       ... 1.0000e-10
Integration weight cutoff        WCut        ... 1.0000e-14
Angular grids for H and He will be reduced by one unit
Partially contracted basis set               ... off
Rotationally invariant grid construction     ... off

Total number of grid points                  ...    32927
Total number of batches                      ...      540
Average number of points per batch           ...       60
Average number of grid points per atom       ...      686

---------------------
COSX-INTEGRATION GRID
---------------------

General Integration Accuracy     IntAcc      ... 3.067
Radial Grid Type                 RadialGrid  ... OptM3 with GC (2021)
Angular Grid (max. ang.)         AngularGrid ... 1 (Lebedev-50)
Angular grid pruning method      GridPruning ... 4 (adaptive)
Weight generation scheme         WeightScheme... Becke
Basis function cutoff            BFCut       ... 1.0000e-10
Integration weight cutoff        WCut        ... 1.0000e-14
Angular grids for H and He will be reduced by one unit
Partially contracted basis set               ... on
Rotationally invariant grid construction     ... off

Total number of grid points                  ...    15266
Total number of batches                      ...      267
Average number of points per batch           ...       57
Average number of grid points per atom       ...      318

---------------
TD-DFT XC SETUP
---------------

DFT calculation                         ... on
Name of the grid file                   ... orc_dy01_b3lyp_meth_uvv.grid_cis.tmp
Exchange functional (TD-DFT)            ... B88
   X-Alpha parameter    XAlpha (TD-DFT) ...  0.666667
   Becke's b parameter  XBeta (TD-DFT)  ...  0.004200
Correlation functional (TD-DFT)         ... LYP
 LDA part of GGA corr.  LDAOpt (TD-DFT) ... VWN-5
Hybrid DFT                              ... on
   Exchange mixing (TD-DFT)             ...  0.200
   GGA exch. scaling (TD-DFT)           ...  0.720
   GGA corr. scaling (TD-DFT)           ...  0.810

Building densities             ... done
Calculating rho(r) on the grid ... done
Building xc-kernel on the grid ... done
                    *** TD-DFT CALCULATION INITIALIZED ***

---------------------------------
    LR-CPCM (non-equilibrium)
---------------------------------

Setting up LR-CPCM             ... done

------------------------
DAVIDSON-DIAGONALIZATION
------------------------

Dimension of the eigenvalue problem            ...  25358
Number of roots to be determined               ...     10
Maximum size of the expansion space            ...    100
Maximum number of iterations                   ...    100
Convergence tolerance for the residual         ...    1.000e-06
Convergence tolerance for the energies         ...    1.000e-06
Orthogonality tolerance                        ...    1.000e-14
Level Shift                                    ...    0.000e+00
Constructing the preconditioner                ... o.k.
Building the initial guess                     ... o.k.
Number of trial vectors determined             ...    100


                       ****Iteration    0****

   Memory handling for direct AO based CIS:
   Memory per vector needed      ...    11 MB
   Memory needed                 ...   337 MB
   Memory available              ...   512 MB
   Number of vectors per batch   ...    45
   Number of batches             ...     1
   Time for densities:            0.093
   Time for RI-J (Direct):        2.068
   Time for K (COSX):            10.571
   Time for XC-Integration:       4.119
   Time for LR-CPCM terms:        3.868
   Time for Sigma-Completion:     0.354
   Size of expansion space: 30
   Lowest Energy          :     0.070577167488
   Maximum Energy change  :     0.172995791631 (vector 9)
   Maximum residual norm  :     0.013070432547

                       ****Iteration    1****
   Time for densities:            0.038
   Time for RI-J (Direct):        1.142
   Time for K (COSX):             2.997
   Time for XC-Integration:       1.461
   Time for LR-CPCM terms:        1.973
   Time for Sigma-Completion:     0.121
   Size of expansion space: 40
   Lowest Energy          :     0.070180326543
   Maximum Energy change  :     0.011612556037 (vector 4)
   Maximum residual norm  :     0.000526284765

                       ****Iteration    2****
   Time for densities:            0.034
   Time for RI-J (Direct):        1.142
   Time for K (COSX):             2.984
   Time for XC-Integration:       1.460
   Time for LR-CPCM terms:        1.971
   Time for Sigma-Completion:     0.140
   Size of expansion space: 50
   Lowest Energy          :     0.070167709551
   Maximum Energy change  :     0.000549918082 (vector 7)
   Maximum residual norm  :     0.000038479944

                       ****Iteration    3****
   Time for densities:            0.040
   Time for RI-J (Direct):        1.101
   Time for K (COSX):             3.016
   Time for XC-Integration:       1.475
   Time for LR-CPCM terms:        1.982
   Time for Sigma-Completion:     0.159
   Size of expansion space: 60
   Lowest Energy          :     0.070167221373
   Maximum Energy change  :     0.000054853216 (vector 7)
   Maximum residual norm  :     0.000003375973

                       ****Iteration    4****
   Time for densities:            0.034
   Time for RI-J (Direct):        1.118
   Time for K (COSX):             2.995
   Time for XC-Integration:       1.502
   Time for LR-CPCM terms:        1.964
   Time for Sigma-Completion:     0.239
   Size of expansion space: 70
   Lowest Energy          :     0.070167202616
   Maximum Energy change  :     0.000004095459 (vector 7)
   Maximum residual norm  :     0.000000117050

      *** CONVERGENCE OF RESIDUAL NORM REACHED ***

Storing the converged CI vectors               ... orc_dy01_b3lyp_meth_uvv.cis1

                 *** DAVIDSON DONE ***

Total time for solving the CIS problem:    53.568sec

------------------------------------
TD-DFT/TDA EXCITED STATES (SINGLETS)
------------------------------------

the weight of the individual excitations are printed if larger than 1.0e-02

STATE  1:  E=   0.070167 au      1.909 eV    15399.9 cm**-1 <S**2> =   0.000000
    86a ->  87a  :     0.986920 (c= -0.99343863)

STATE  2:  E=   0.122562 au      3.335 eV    26899.3 cm**-1 <S**2> =   0.000000
    86a ->  88a  :     0.781252 (c= -0.88388463)
    86a ->  89a  :     0.176105 (c=  0.41964854)

STATE  3:  E=   0.129246 au      3.517 eV    28366.2 cm**-1 <S**2> =   0.000000
    85a ->  87a  :     0.980201 (c=  0.99005089)

STATE  4:  E=   0.130223 au      3.544 eV    28580.7 cm**-1 <S**2> =   0.000000
    85a ->  87a  :     0.013776 (c= -0.11737151)
    86a ->  88a  :     0.147574 (c= -0.38415321)
    86a ->  89a  :     0.785398 (c= -0.88622705)

STATE  5:  E=   0.144327 au      3.927 eV    31676.1 cm**-1 <S**2> =   0.000000
    80a ->  87a  :     0.011523 (c= -0.10734717)
    84a ->  87a  :     0.918649 (c=  0.95846187)
    84a ->  90a  :     0.020221 (c=  0.14220062)

STATE  6:  E=   0.156138 au      4.249 eV    34268.3 cm**-1 <S**2> =   0.000000
    83a ->  87a  :     0.035835 (c= -0.18930092)
    86a ->  90a  :     0.942066 (c= -0.97060069)

STATE  7:  E=   0.158195 au      4.305 eV    34719.9 cm**-1 <S**2> =   0.000000
    82a ->  87a  :     0.022797 (c=  0.15098520)
    83a ->  87a  :     0.044027 (c=  0.20982589)
    85a ->  88a  :     0.165005 (c= -0.40620857)
    85a ->  91a  :     0.016233 (c= -0.12740994)
    86a ->  91a  :     0.693203 (c=  0.83258789)

STATE  8:  E=   0.162001 au      4.408 eV    35555.2 cm**-1 <S**2> =   0.000000
    82a ->  87a  :     0.049843 (c= -0.22325473)
    83a ->  87a  :     0.635128 (c= -0.79694902)
    84a ->  88a  :     0.048414 (c=  0.22003239)
    84a ->  89a  :     0.123237 (c= -0.35105177)
    85a ->  88a  :     0.025097 (c= -0.15841880)
    86a ->  90a  :     0.022147 (c=  0.14881765)
    86a ->  91a  :     0.032947 (c=  0.18151424)
    86a ->  92a  :     0.024889 (c=  0.15776287)

STATE  9:  E=   0.163966 au      4.462 eV    35986.4 cm**-1 <S**2> =   0.000000
    82a ->  87a  :     0.723775 (c= -0.85074978)
    83a ->  87a  :     0.155643 (c=  0.39451610)
    84a ->  88a  :     0.018071 (c=  0.13442709)
    84a ->  89a  :     0.046218 (c= -0.21498332)
    86a ->  90a  :     0.021632 (c= -0.14707809)

STATE 10:  E=   0.171085 au      4.655 eV    37548.8 cm**-1 <S**2> =   0.000000
    86a ->  92a  :     0.606964 (c= -0.77907898)
    86a ->  93a  :     0.284210 (c= -0.53311327)
    86a ->  94a  :     0.043634 (c=  0.20888723)
    86a ->  97a  :     0.010732 (c= -0.10359570)


-----------------------------
TD-DFT/TDA-EXCITATION SPECTRA
-----------------------------

Center of mass = (  0.0277,  0.0895, -0.0304)
Calculating the Dipole integrals                  ... done
Transforming integrals                            ... done
Calculating the Linear Momentum integrals         ... done
Transforming integrals                            ... done
Calculating angular momentum integrals            ... done
Transforming integrals                            ... done

-----------------------------------------------------------------------------
         ABSORPTION SPECTRUM VIA TRANSITION ELECTRIC DIPOLE MOMENTS
-----------------------------------------------------------------------------
State   Energy    Wavelength  fosc         T2        TX        TY        TZ  
        (cm-1)      (nm)                 (au**2)    (au)      (au)      (au) 
-----------------------------------------------------------------------------
   1   15399.9    649.4   0.006927160   0.14809  -0.38362   0.01668   0.02542
   2   26899.3    371.8   0.149118807   1.82502  -1.34513  -0.03490   0.12009
   3   28366.2    352.5   0.010027809   0.11638  -0.33410   0.03828   0.05738
   4   28580.7    349.9   0.139349199   1.60512  -1.26022  -0.10825   0.07245
   5   31676.1    315.7   0.092474640   0.96110  -0.57820  -0.25111   0.75082
   6   34268.3    291.8   0.003299763   0.03170   0.13998   0.09595  -0.05385
   7   34719.9    288.0   0.181041639   1.71663  -1.28461   0.25753  -0.00942
   8   35555.2    281.3   0.133579183   1.23683   1.07180   0.13368   0.26495
   9   35986.4    277.9   0.034806135   0.31841   0.54358   0.03449   0.14747
  10   37548.8    266.3   0.007077952   0.06206  -0.22607  -0.01270   0.10386

-----------------------------------------------------------------------------
         ABSORPTION SPECTRUM VIA TRANSITION VELOCITY DIPOLE MOMENTS
-----------------------------------------------------------------------------
State   Energy    Wavelength   fosc        P2         PX        PY        PZ  
        (cm-1)      (nm)                 (au**2)     (au)      (au)      (au) 
-----------------------------------------------------------------------------
   1   15399.9    649.4   0.003551731   0.00037   0.01519  -0.00833   0.00858
   2   26899.3    371.8   0.030369662   0.00558   0.07422   0.00801   0.00321
   3   28366.2    352.5   0.002131286   0.00041   0.02020   0.00041   0.00223
   4   28580.7    349.9   0.028460487   0.00556   0.07252   0.00487   0.01663
   5   31676.1    315.7   0.006516690   0.00141   0.02460   0.00645   0.02764
   6   34268.3    291.8   0.000756849   0.00018  -0.00534  -0.00940   0.00777
   7   34719.9    288.0   0.073362568   0.01741   0.13080  -0.01410  -0.01007
   8   35555.2    281.3   0.045105806   0.01096  -0.10382   0.00128   0.01341
   9   35986.4    277.9   0.014072261   0.00346  -0.05857   0.00111   0.00537
  10   37548.8    266.3   0.007010841   0.00180   0.03765   0.01946  -0.00168

-------------------------------------------------------------------
                             CD SPECTRUM
-------------------------------------------------------------------
State  Energy     Wavelength     R         MX        MY        MZ   
       (cm-1)       (nm)     (1e40*cgs)   (au)      (au)      (au)  
-------------------------------------------------------------------
   1   15399.9    649.4     -3.64347   0.01868   0.01542  -0.03219
   2   26899.3    371.8     37.92609  -0.09429  -0.07244  -0.40732
   3   28366.2    352.5      0.06444  -0.01953  -0.01907  -0.09860
   4   28580.7    349.9     17.95014  -0.05263  -0.01006  -0.40506
   5   31676.1    315.7     31.46500   0.01926  -0.14454   0.05538
   6   34268.3    291.8      1.10714  -0.01223   0.04244   0.00023
   7   34719.9    288.0    -75.83489   0.09192  -0.14839   0.48383
   8   35555.2    281.3    -11.17665  -0.05270   0.22399   0.01071
   9   35986.4    277.9    -16.81095  -0.05970   0.08764  -0.04223
  10   37548.8    266.3    -14.01307   0.15095  -0.00865   0.04134

-------------------------------------------------------------------
         CD SPECTRUM VIA TRANSITION VELOCITY DIPOLE MOMENTS        
-------------------------------------------------------------------
State  Energy     Wavelength     R         MX        MY        MZ   
       (cm-1)       (nm)     (1e40*cgs)   (au)      (au)      (au)  
-------------------------------------------------------------------
   1   15399.9    649.4     -0.81054   0.01868   0.01542  -0.03219
   2   26899.3    371.8    -34.17398  -0.09429  -0.07244  -0.40732
   3   28366.2    352.5     -2.26848  -0.01953  -0.01907  -0.09860
   4   28580.7    349.9    -38.39018  -0.05263  -0.01006  -0.40506
   5   31676.1    315.7      3.50010   0.01926  -0.14454   0.05538
   6   34268.3    291.8     -1.00206  -0.01223   0.04244   0.00023
   7   34719.9    288.0     27.54871   0.09192  -0.14839   0.48383
   8   35555.2    281.3     17.17584  -0.05270   0.22399   0.01071
   9   35986.4    277.9      9.68253  -0.05970   0.08764  -0.04223
  10   37548.8    266.3     15.00878   0.15095  -0.00865   0.04134

Total run time:       55.227 sec

           *** ORCA-CIS/TD-DFT FINISHED WITHOUT ERROR ***

Maximum memory used throughout the entire CIS-calculation: 329.0 MB

-----------------------
CIS/TD-DFT TOTAL ENERGY
-----------------------

    E(SCF)  =   -999.031432170 Eh
    DE(CIS) =      0.070167203 Eh (Root  1)
    ----------------------------- ---------
    E(tot)  =   -998.961264967 Eh


-------------------------   --------------------
FINAL SINGLE POINT ENERGY      -998.961264967248
-------------------------   --------------------


                            ***************************************
                            *     ORCA property calculations      *
                            ***************************************

                                    ---------------------
                                    Active property flags
                                    ---------------------
   (+) Dipole Moment


------------------------------------------------------------------------------
                       ORCA ELECTRIC PROPERTIES CALCULATION
------------------------------------------------------------------------------

Dipole Moment Calculation                       ... on
Quadrupole Moment Calculation                   ... off
Polarizability Calculation                      ... off
GBWName                                         ... orc_dy01_b3lyp_meth_uvv.gbw
Electron density                                ... orc_dy01_b3lyp_meth_uvv.scfp
The origin for moment calculation is the CENTER OF MASS  = ( 0.027745,  0.089499 -0.030359)

-------------
DIPOLE MOMENT
-------------
                                X             Y             Z
Electronic contribution:     -7.28395     -10.34101       3.66417
Nuclear contribution   :      3.65974      10.93332      -3.83805
                        -----------------------------------------
Total Dipole Moment    :     -3.62421       0.59231      -0.17388
                        -----------------------------------------
Magnitude (a.u.)       :      3.67640
Magnitude (Debye)      :      9.34467



--------------------
Rotational spectrum 
--------------------
 
Rotational constants in cm-1:     0.017615     0.003623     0.003457 
Rotational constants in MHz :   528.077790   108.621278   103.628492 

 Dipole components along the rotational axes: 
x,y,z [a.u.] :     3.620797     0.621724    -0.138627 
x,y,z [Debye]:     9.203336     1.580297    -0.352361 

 

Timings for individual modules:

Sum of individual times         ...      258.362 sec (=   4.306 min)
GTO integral calculation        ...        2.877 sec (=   0.048 min)   1.1 %
SCF iterations                  ...      198.816 sec (=   3.314 min)  77.0 %
CIS module                      ...       56.668 sec (=   0.944 min)  21.9 %
                             ****ORCA TERMINATED NORMALLY****
TOTAL RUN TIME: 0 days 0 hours 4 minutes 21 seconds 147 msec
