 argument  1 = nwc_dy01_b3lyp_meth_ram.inp
                                         
                                         
 
 
              Northwest Computational Chemistry Package (NWChem) 6.8
              ------------------------------------------------------
 
 
                    Environmental Molecular Sciences Laboratory
                       Pacific Northwest National Laboratory
                                Richland, WA 99352
 
                              Copyright (c) 1994-2017
                       Pacific Northwest National Laboratory
                            Battelle Memorial Institute
 
             NWChem is an open-source computational chemistry package
                        distributed under the terms of the
                      Educational Community License (ECL) 2.0
             A copy of the license is included with this distribution
                              in the LICENSE.TXT file
 
                                  ACKNOWLEDGMENT
                                  --------------

            This software and its documentation were developed at the
            EMSL at Pacific Northwest National Laboratory, a multiprogram
            national laboratory, operated for the U.S. Department of Energy
            by Battelle under Contract Number DE-AC05-76RL01830. Support
            for this work was provided by the Department of Energy Office
            of Biological and Environmental Research, Office of Basic
            Energy Sciences, and the Office of Advanced Scientific Computing.


           Job information
           ---------------

    hostname        = cn0253
    program         = nwchem
    date            = Thu May  9 08:55:59 2024

    compiled        = Tue_Aug_14_10:52:15_2018
    source          = /panfs/roc/msisoft/nwchem/6.8_impi_2018
    nwchem branch   = 6.8
    nwchem revision = v6.8-47-gdf6c956
    ga revision     = ga-5.6.3
    use scalapack   = T
    input           = nwc_dy01_b3lyp_meth_ram.inp
    prefix          = nwc_dy01_b3lyp_meth_ram.
    data base       = ./nwc_dy01_b3lyp_meth_ram.db
    status          = startup
    nproc           =       16
    time left       =     -1s



           Memory information
           ------------------

    heap     =   13107196 doubles =    100.0 Mbytes
    stack    =   13107201 doubles =    100.0 Mbytes
    global   =   26214400 doubles =    200.0 Mbytes (distinct from heap & stack)
    total    =   52428797 doubles =    400.0 Mbytes
    verify   = yes
    hardfail = no 


           Directory information
           ---------------------
 
  0 permanent = .
  0 scratch   = /scratch.global/lever046/nwchem
 
 
 
 
                                NWChem Input Module
                                -------------------
 
 
                      Dye01 molecule optimization in methanol
                      ---------------------------------------

 Scaling coordinates for geometry "geometry" by  1.889725989
 (inverse scale =  0.529177249)

 C1  symmetry detected

          ------
          auto-z
          ------
 
 
                             Geometry "geometry" -> ""
                             -------------------------
 
 Output coordinates in angstroms (scale by  1.889725989 to convert to a.u.)
 
  No.       Tag          Charge          X              Y              Z
 ---- ---------------- ---------- -------------- -------------- --------------
    1 N                    7.0000     0.51290543     2.40433313    -0.42922004
    2 N                    7.0000     0.68563288    -2.43206491    -0.03124106
    3 C                    6.0000    -0.10486459     1.24506157    -0.00010698
    4 C                    6.0000    -0.04814063    -1.27099048    -0.22747442
    5 C                    6.0000    -0.01964921     3.67637989    -0.17524389
    6 C                    6.0000     0.08881359    -3.70344924    -0.04942181
    7 C                    6.0000     0.56118386    -0.00307701    -0.13814054
    8 C                    6.0000     1.76059458     2.30530209    -1.22938660
    9 C                    6.0000     2.14340845    -2.34195448     0.23625401
   10 C                    6.0000    -1.28177022     3.78843322     0.47549966
   11 C                    6.0000    -1.28193956    -3.83190066    -0.41251854
   12 C                    6.0000    -1.36774264     1.37507116     0.66736750
   13 C                    6.0000    -1.42395932    -1.42473134    -0.62654819
   14 C                    6.0000    -1.93839414     2.59114191     0.89006615
   15 C                    6.0000    -2.01106009    -2.64474693    -0.73283683
   16 C                    6.0000     0.65636331     4.86068716    -0.55007488
   17 C                    6.0000     0.80064005    -4.87379277     0.30191669
   18 C                    6.0000    -1.83843918     5.06473972     0.71841485
   19 C                    6.0000    -1.88728112    -5.10702607    -0.45217019
   20 C                    6.0000     3.03912626     2.41734715    -0.39788965
   21 C                    6.0000     2.47684069    -2.13652029     1.71330431
   22 C                    6.0000     0.08026101     6.10061556    -0.30248194
   23 C                    6.0000     0.17553870    -6.11521313     0.26304149
   24 C                    6.0000    -1.17149360     6.21437275     0.33123796
   25 C                    6.0000    -1.17042706    -6.24586628    -0.12247604
   26 H                    1.0000     1.63827917     0.03787578    -0.14138174
   27 H                    1.0000     1.72174740     1.35207148    -1.75918194
   28 H                    1.0000     1.72208634     3.08218652    -1.99479579
   29 H                    1.0000     2.60518901    -3.25085926    -0.14660603
   30 H                    1.0000     2.54990766    -1.53718205    -0.37701346
   31 H                    1.0000    -1.83329747     0.47988437     1.06009642
   32 H                    1.0000    -1.97427554    -0.53645025    -0.90931932
   33 H                    1.0000    -2.88294006     2.66507815     1.42355911
   34 H                    1.0000    -3.04128354    -2.73275474    -1.06917623
   35 H                    1.0000     1.62962194     4.83165209    -1.02184772
   36 H                    1.0000     1.83070157    -4.83257518     0.63046877
   37 H                    1.0000    -2.80294403     5.12012113     1.21775141
   38 H                    1.0000    -2.93288156    -5.17174466    -0.74427449
   39 H                    1.0000     3.10926927     1.62207087     0.35240519
   40 H                    1.0000     3.90437069     2.33285087    -1.06659632
   41 H                    1.0000     3.10266284     3.37958173     0.12175611
   42 H                    1.0000     3.56600616    -2.08027970     1.83007378
   43 H                    1.0000     2.04375011    -1.20741382     2.09997861
   44 H                    1.0000     2.10993583    -2.96892113     2.32454481
   45 H                    1.0000     0.61787269     6.99685387    -0.60161053
   46 H                    1.0000     0.74655614    -6.99620186     0.54536812
   47 H                    1.0000    -1.60398466     7.19351117     0.51826017
   48 H                    1.0000    -1.64177301    -7.22453390    -0.15122382
 
      Atomic Mass 
      ----------- 
 
      N                 14.003070
      C                 12.000000
      H                  1.007825
 

 Effective nuclear repulsion energy (a.u.)    2033.0168293777

            Nuclear Dipole moment (a.u.) 
            ----------------------------
        X                 Y               Z
 ---------------- ---------------- ----------------
    -0.0000000000    -0.0000000000     0.0000000000
 


                                Z-matrix (autoz)
                                -------- 

 Units are Angstrom for bonds and degrees for angles
 
      Type          Name      I     J     K     L     M      Value
      ----------- --------  ----- ----- ----- ----- ----- ----------
    1 Stretch                  1     3                       1.38191
    2 Stretch                  1     5                       1.40222
    3 Stretch                  1     8                       1.48553
    4 Stretch                  2     4                       1.38745
    5 Stretch                  2     6                       1.40461
    6 Stretch                  2     9                       1.48485
    7 Stretch                  3     7                       1.42145
    8 Stretch                  3    12                       1.43432
    9 Stretch                  4     7                       1.40956
   10 Stretch                  4    13                       1.44075
   11 Stretch                  5    10                       1.42442
   12 Stretch                  5    16                       1.41424
   13 Stretch                  6    11                       1.42383
   14 Stretch                  6    17                       1.41416
   15 Stretch                  7    26                       1.07788
   16 Stretch                  8    20                       1.52924
   17 Stretch                  8    27                       1.09126
   18 Stretch                  8    28                       1.09128
   19 Stretch                  9    21                       1.52809
   20 Stretch                  9    29                       1.08900
   21 Stretch                  9    30                       1.09041
   22 Stretch                 10    14                       1.42707
   23 Stretch                 10    18                       1.41345
   24 Stretch                 11    15                       1.42953
   25 Stretch                 11    19                       1.41207
   26 Stretch                 12    14                       1.36164
   27 Stretch                 12    31                       1.08274
   28 Stretch                 13    15                       1.35810
   29 Stretch                 13    32                       1.08252
   30 Stretch                 14    33                       1.08731
   31 Stretch                 15    34                       1.08730
   32 Stretch                 16    22                       1.38947
   33 Stretch                 16    35                       1.08196
   34 Stretch                 17    23                       1.39046
   35 Stretch                 17    36                       1.08198
   36 Stretch                 18    24                       1.38433
   37 Stretch                 18    37                       1.08751
   38 Stretch                 19    25                       1.38547
   39 Stretch                 19    38                       1.08756
   40 Stretch                 20    39                       1.09559
   41 Stretch                 20    40                       1.09679
   42 Stretch                 20    41                       1.09543
   43 Stretch                 21    42                       1.09685
   44 Stretch                 21    43                       1.09559
   45 Stretch                 21    44                       1.09596
   46 Stretch                 22    24                       1.40763
   47 Stretch                 22    45                       1.08708
   48 Stretch                 23    25                       1.40617
   49 Stretch                 23    46                       1.08716
   50 Stretch                 24    47                       1.08662
   51 Stretch                 25    48                       1.08664
   52 Bend                     1     3     7               119.80056
   53 Bend                     1     3    12               117.52071
   54 Bend                     1     5    10               119.38196
   55 Bend                     1     5    16               122.01405
   56 Bend                     1     8    20               113.85594
   57 Bend                     1     8    27               106.84825
   58 Bend                     1     8    28               107.49968
   59 Bend                     2     4     7               121.00841
   60 Bend                     2     4    13               117.05885
   61 Bend                     2     6    11               119.60499
   62 Bend                     2     6    17               122.14073
   63 Bend                     2     9    21               113.36044
   64 Bend                     2     9    29               107.59711
   65 Bend                     2     9    30               108.02709
   66 Bend                     3     1     5               122.34291
   67 Bend                     3     1     8               119.13055
   68 Bend                     3     7     4               126.40128
   69 Bend                     3     7    26               115.79544
   70 Bend                     3    12    14               121.73951
   71 Bend                     3    12    31               118.19238
   72 Bend                     4     2     6               122.06756
   73 Bend                     4     2     9               119.59821
   74 Bend                     4     7    26               117.77178
   75 Bend                     4    13    15               122.02915
   76 Bend                     4    13    32               118.05024
   77 Bend                     5     1     8               118.49113
   78 Bend                     5    10    14               118.32093
   79 Bend                     5    10    18               119.90143
   80 Bend                     5    16    22               120.12392
   81 Bend                     5    16    35               121.53862
   82 Bend                     6     2     9               118.32115
   83 Bend                     6    11    15               118.24547
   84 Bend                     6    11    19               120.08832
   85 Bend                     6    17    23               120.37417
   86 Bend                     6    17    36               121.54185
   87 Bend                     7     3    12               122.50279
   88 Bend                     7     4    13               121.75828
   89 Bend                     8    20    39               111.88254
   90 Bend                     8    20    40               108.80804
   91 Bend                     8    20    41               111.76406
   92 Bend                     9    21    42               109.05464
   93 Bend                     9    21    43               111.64788
   94 Bend                     9    21    44               111.34210
   95 Bend                    10     5    16               118.60361
   96 Bend                    10    14    12               120.59374
   97 Bend                    10    14    33               119.02499
   98 Bend                    10    18    24               120.80193
   99 Bend                    10    18    37               118.30635
  100 Bend                    11     6    17               118.24791
  101 Bend                    11    15    13               120.53010
  102 Bend                    11    15    34               119.03618
  103 Bend                    11    19    25               120.91577
  104 Bend                    11    19    38               118.25700
  105 Bend                    12    14    33               120.33401
  106 Bend                    13    15    34               120.43257
  107 Bend                    14    10    18               121.76540
  108 Bend                    14    12    31               119.92490
  109 Bend                    15    11    19               121.66609
  110 Bend                    15    13    32               119.79713
  111 Bend                    16    22    24               121.40248
  112 Bend                    16    22    45               118.79212
  113 Bend                    17    23    25               121.39500
  114 Bend                    17    23    46               118.69254
  115 Bend                    18    24    22               119.15875
  116 Bend                    18    24    47               120.55887
  117 Bend                    19    25    23               118.95491
  118 Bend                    19    25    48               120.63607
  119 Bend                    20     8    27               110.96147
  120 Bend                    20     8    28               111.02094
  121 Bend                    21     9    29               111.06980
  122 Bend                    21     9    30               111.28867
  123 Bend                    22    16    35               118.33393
  124 Bend                    22    24    47               120.28142
  125 Bend                    23    17    36               118.06637
  126 Bend                    23    25    48               120.40628
  127 Bend                    24    18    37               120.89170
  128 Bend                    24    22    45               119.80398
  129 Bend                    25    19    38               120.82671
  130 Bend                    25    23    46               119.91103
  131 Bend                    27     8    28               106.26534
  132 Bend                    29     9    30               105.08066
  133 Bend                    39    20    40               108.12593
  134 Bend                    39    20    41               108.00165
  135 Bend                    40    20    41               108.12790
  136 Bend                    42    21    43               108.14826
  137 Bend                    42    21    44               108.18004
  138 Bend                    43    21    44               108.35613
  139 Torsion                  1     3     7     4        -155.04298
  140 Torsion                  1     3     7    26          27.05620
  141 Torsion                  1     3    12    14          -0.79075
  142 Torsion                  1     3    12    31        -176.43518
  143 Torsion                  1     5    10    14           2.22402
  144 Torsion                  1     5    10    18        -179.02568
  145 Torsion                  1     5    16    22         178.74461
  146 Torsion                  1     5    16    35          -1.94941
  147 Torsion                  1     8    20    39          60.53532
  148 Torsion                  1     8    20    40         179.93950
  149 Torsion                  1     8    20    41         -60.72688
  150 Torsion                  2     4     7     3        -164.00942
  151 Torsion                  2     4     7    26          13.85452
  152 Torsion                  2     4    13    15           3.80022
  153 Torsion                  2     4    13    32        -172.14915
  154 Torsion                  2     6    11    15          -0.75568
  155 Torsion                  2     6    11    19         179.12144
  156 Torsion                  2     6    17    23        -179.60093
  157 Torsion                  2     6    17    36           1.95491
  158 Torsion                  2     9    21    42         179.98693
  159 Torsion                  2     9    21    43         -60.56567
  160 Torsion                  2     9    21    44          60.68910
  161 Torsion                  3     1     5    10          -3.93314
  162 Torsion                  3     1     5    16         176.29375
  163 Torsion                  3     1     8    20         -94.99029
  164 Torsion                  3     1     8    27          27.87203
  165 Torsion                  3     1     8    28         141.59603
  166 Torsion                  3     7     4    13          20.93275
  167 Torsion                  3    12    14    10          -0.76860
  168 Torsion                  3    12    14    33        -178.24407
  169 Torsion                  4     2     6    11           6.53701
  170 Torsion                  4     2     6    17        -172.52819
  171 Torsion                  4     2     9    21          85.95999
  172 Torsion                  4     2     9    29        -150.82251
  173 Torsion                  4     2     9    30         -37.85182
  174 Torsion                  4     7     3    12          29.89935
  175 Torsion                  4    13    15    11           1.71492
  176 Torsion                  4    13    15    34        -177.89259
  177 Torsion                  5     1     3     7        -172.12792
  178 Torsion                  5     1     3    12           3.17262
  179 Torsion                  5     1     8    20          87.12281
  180 Torsion                  5     1     8    27        -150.01487
  181 Torsion                  5     1     8    28         -36.29086
  182 Torsion                  5    10    14    12           0.04207
  183 Torsion                  5    10    14    33         177.55023
  184 Torsion                  5    10    18    24          -0.00638
  185 Torsion                  5    10    18    37        -179.94929
  186 Torsion                  5    16    22    24           0.56880
  187 Torsion                  5    16    22    45        -179.86583
  188 Torsion                  6     2     4     7         176.78372
  189 Torsion                  6     2     4    13          -7.93448
  190 Torsion                  6     2     9    21         -92.75193
  191 Torsion                  6     2     9    29          30.46557
  192 Torsion                  6     2     9    30         143.43626
  193 Torsion                  6    11    15    13          -3.23544
  194 Torsion                  6    11    15    34         176.37749
  195 Torsion                  6    11    19    25           0.94123
  196 Torsion                  6    11    19    38        -179.32004
  197 Torsion                  6    17    23    25          -0.01415
  198 Torsion                  6    17    23    46        -179.57887
  199 Torsion                  7     3     1     8          10.07034
  200 Torsion                  7     3    12    14         174.37352
  201 Torsion                  7     3    12    31          -1.27090
  202 Torsion                  7     4     2     9          -1.87821
  203 Torsion                  7     4    13    15         179.04410
  204 Torsion                  7     4    13    32           3.09474
  205 Torsion                  8     1     3    12        -174.62913
  206 Torsion                  8     1     5    10         173.88206
  207 Torsion                  8     1     5    16          -5.89105
  208 Torsion                  9     2     4    13         173.40358
  209 Torsion                  9     2     6    11        -174.78465
  210 Torsion                  9     2     6    17           6.15016
  211 Torsion                 10     5    16    22          -1.03020
  212 Torsion                 10     5    16    35         178.27578
  213 Torsion                 10    14    12    31         174.80187
  214 Torsion                 10    18    24    22          -0.47273
  215 Torsion                 10    18    24    47         179.88307
  216 Torsion                 11     6    17    23           1.32172
  217 Torsion                 11     6    17    36        -177.12245
  218 Torsion                 11    15    13    32         177.59534
  219 Torsion                 11    19    25    23           0.38566
  220 Torsion                 11    19    25    48         179.78674
  221 Torsion                 12     3     7    26        -148.00148
  222 Torsion                 12    14    10    18        -178.68371
  223 Torsion                 13     4     7    26        -161.20331
  224 Torsion                 13    15    11    19         176.88948
  225 Torsion                 14    10     5    16        -177.99511
  226 Torsion                 14    10    18    24         178.69967
  227 Torsion                 14    10    18    37          -1.24324
  228 Torsion                 15    11     6    17         178.34578
  229 Torsion                 15    11    19    25        -179.18595
  230 Torsion                 15    11    19    38           0.55278
  231 Torsion                 16     5    10    18           0.75519
  232 Torsion                 16    22    24    18           0.19484
  233 Torsion                 16    22    24    47         179.84005
  234 Torsion                 17     6    11    19          -1.77710
  235 Torsion                 17    23    25    19          -0.85898
  236 Torsion                 17    23    25    48         179.73852
  237 Torsion                 18    10    14    33          -1.17556
  238 Torsion                 18    24    22    45        -179.36621
  239 Torsion                 19    11    15    34          -3.49759
  240 Torsion                 19    25    23    46         178.70051
  241 Torsion                 22    24    18    37         179.46869
  242 Torsion                 23    25    19    38        -179.34635
  243 Torsion                 24    22    16    35        -178.75919
  244 Torsion                 25    23    17    36         178.48318
  245 Torsion                 27     8    20    39         -60.04751
  246 Torsion                 27     8    20    40          59.35666
  247 Torsion                 27     8    20    41         178.69028
  248 Torsion                 28     8    20    39        -177.98679
  249 Torsion                 28     8    20    40         -58.58261
  250 Torsion                 28     8    20    41          60.75100
  251 Torsion                 29     9    21    42          58.70074
  252 Torsion                 29     9    21    43         178.14814
  253 Torsion                 29     9    21    44         -60.59709
  254 Torsion                 30     9    21    42         -58.00180
  255 Torsion                 30     9    21    43          61.44561
  256 Torsion                 30     9    21    44        -177.29963
  257 Torsion                 31    12    14    33          -2.67361
  258 Torsion                 32    13    15    34          -2.01217
  259 Torsion                 35    16    22    45           0.80619
  260 Torsion                 36    17    23    46          -1.08154
  261 Torsion                 37    18    24    47          -0.17551
  262 Torsion                 38    19    25    48           0.05474
  263 Torsion                 45    22    24    47           0.27900
  264 Torsion                 46    23    25    48          -0.70199
 
 
            XYZ format geometry
            -------------------
    48
 geometry
 N                     0.51290543     2.40433313    -0.42922004
 N                     0.68563288    -2.43206491    -0.03124106
 C                    -0.10486459     1.24506157    -0.00010698
 C                    -0.04814063    -1.27099048    -0.22747442
 C                    -0.01964921     3.67637989    -0.17524389
 C                     0.08881359    -3.70344924    -0.04942181
 C                     0.56118386    -0.00307701    -0.13814054
 C                     1.76059458     2.30530209    -1.22938660
 C                     2.14340845    -2.34195448     0.23625401
 C                    -1.28177022     3.78843322     0.47549966
 C                    -1.28193956    -3.83190066    -0.41251854
 C                    -1.36774264     1.37507116     0.66736750
 C                    -1.42395932    -1.42473134    -0.62654819
 C                    -1.93839414     2.59114191     0.89006615
 C                    -2.01106009    -2.64474693    -0.73283683
 C                     0.65636331     4.86068716    -0.55007488
 C                     0.80064005    -4.87379277     0.30191669
 C                    -1.83843918     5.06473972     0.71841485
 C                    -1.88728112    -5.10702607    -0.45217019
 C                     3.03912626     2.41734715    -0.39788965
 C                     2.47684069    -2.13652029     1.71330431
 C                     0.08026101     6.10061556    -0.30248194
 C                     0.17553870    -6.11521313     0.26304149
 C                    -1.17149360     6.21437275     0.33123796
 C                    -1.17042706    -6.24586628    -0.12247604
 H                     1.63827917     0.03787578    -0.14138174
 H                     1.72174740     1.35207148    -1.75918194
 H                     1.72208634     3.08218652    -1.99479579
 H                     2.60518901    -3.25085926    -0.14660603
 H                     2.54990766    -1.53718205    -0.37701346
 H                    -1.83329747     0.47988437     1.06009642
 H                    -1.97427554    -0.53645025    -0.90931932
 H                    -2.88294006     2.66507815     1.42355911
 H                    -3.04128354    -2.73275474    -1.06917623
 H                     1.62962194     4.83165209    -1.02184772
 H                     1.83070157    -4.83257518     0.63046877
 H                    -2.80294403     5.12012113     1.21775141
 H                    -2.93288156    -5.17174466    -0.74427449
 H                     3.10926927     1.62207087     0.35240519
 H                     3.90437069     2.33285087    -1.06659632
 H                     3.10266284     3.37958173     0.12175611
 H                     3.56600616    -2.08027970     1.83007378
 H                     2.04375011    -1.20741382     2.09997861
 H                     2.10993583    -2.96892113     2.32454481
 H                     0.61787269     6.99685387    -0.60161053
 H                     0.74655614    -6.99620186     0.54536812
 H                    -1.60398466     7.19351117     0.51826017
 H                    -1.64177301    -7.22453390    -0.15122382
 
 ==============================================================================
                                internuclear distances
 ------------------------------------------------------------------------------
       center one      |      center two      | atomic units |  angstroms
 ------------------------------------------------------------------------------
    3 C                |   1 N                |     2.61144  |     1.38191
    4 C                |   2 N                |     2.62191  |     1.38745
    5 C                |   1 N                |     2.64981  |     1.40222
    6 C                |   2 N                |     2.65434  |     1.40461
    7 C                |   3 C                |     2.68615  |     1.42145
    7 C                |   4 C                |     2.66368  |     1.40956
    8 C                |   1 N                |     2.80725  |     1.48553
    9 C                |   2 N                |     2.80596  |     1.48485
   10 C                |   5 C                |     2.69176  |     1.42442
   11 C                |   6 C                |     2.69066  |     1.42383
   12 C                |   3 C                |     2.71048  |     1.43432
   13 C                |   4 C                |     2.72263  |     1.44075
   14 C                |  10 C                |     2.69677  |     1.42707
   14 C                |  12 C                |     2.57313  |     1.36164
   15 C                |  11 C                |     2.70142  |     1.42953
   15 C                |  13 C                |     2.56643  |     1.35810
   16 C                |   5 C                |     2.67253  |     1.41424
   17 C                |   6 C                |     2.67237  |     1.41416
   18 C                |  10 C                |     2.67104  |     1.41345
   19 C                |  11 C                |     2.66843  |     1.41207
   20 C                |   8 C                |     2.88985  |     1.52924
   21 C                |   9 C                |     2.88767  |     1.52809
   22 C                |  16 C                |     2.62571  |     1.38947
   23 C                |  17 C                |     2.62759  |     1.39046
   24 C                |  18 C                |     2.61601  |     1.38433
   24 C                |  22 C                |     2.66004  |     1.40763
   25 C                |  19 C                |     2.61816  |     1.38547
   25 C                |  23 C                |     2.65728  |     1.40617
   26 H                |   7 C                |     2.03689  |     1.07788
   27 H                |   8 C                |     2.06218  |     1.09126
   28 H                |   8 C                |     2.06221  |     1.09128
   29 H                |   9 C                |     2.05792  |     1.08900
   30 H                |   9 C                |     2.06058  |     1.09041
   31 H                |  12 C                |     2.04609  |     1.08274
   32 H                |  13 C                |     2.04567  |     1.08252
   33 H                |  14 C                |     2.05472  |     1.08731
   34 H                |  15 C                |     2.05471  |     1.08730
   35 H                |  16 C                |     2.04461  |     1.08196
   36 H                |  17 C                |     2.04464  |     1.08198
   37 H                |  18 C                |     2.05509  |     1.08751
   38 H                |  19 C                |     2.05520  |     1.08756
   39 H                |  20 C                |     2.07037  |     1.09559
   40 H                |  20 C                |     2.07264  |     1.09679
   41 H                |  20 C                |     2.07006  |     1.09543
   42 H                |  21 C                |     2.07275  |     1.09685
   43 H                |  21 C                |     2.07037  |     1.09559
   44 H                |  21 C                |     2.07106  |     1.09596
   45 H                |  22 C                |     2.05429  |     1.08708
   46 H                |  23 C                |     2.05443  |     1.08716
   47 H                |  24 C                |     2.05341  |     1.08662
   48 H                |  25 C                |     2.05345  |     1.08664
 ------------------------------------------------------------------------------
                         number of included internuclear distances:         51
 ==============================================================================



 ==============================================================================
                                 internuclear angles
 ------------------------------------------------------------------------------
        center 1       |       center 2       |       center 3       |  degrees
 ------------------------------------------------------------------------------
    3 C                |   1 N                |   5 C                |   122.34
    3 C                |   1 N                |   8 C                |   119.13
    5 C                |   1 N                |   8 C                |   118.49
    4 C                |   2 N                |   6 C                |   122.07
    4 C                |   2 N                |   9 C                |   119.60
    6 C                |   2 N                |   9 C                |   118.32
    1 N                |   3 C                |   7 C                |   119.80
    1 N                |   3 C                |  12 C                |   117.52
    7 C                |   3 C                |  12 C                |   122.50
    2 N                |   4 C                |   7 C                |   121.01
    2 N                |   4 C                |  13 C                |   117.06
    7 C                |   4 C                |  13 C                |   121.76
    1 N                |   5 C                |  10 C                |   119.38
    1 N                |   5 C                |  16 C                |   122.01
   10 C                |   5 C                |  16 C                |   118.60
    2 N                |   6 C                |  11 C                |   119.60
    2 N                |   6 C                |  17 C                |   122.14
   11 C                |   6 C                |  17 C                |   118.25
    3 C                |   7 C                |   4 C                |   126.40
    3 C                |   7 C                |  26 H                |   115.80
    4 C                |   7 C                |  26 H                |   117.77
    1 N                |   8 C                |  20 C                |   113.86
    1 N                |   8 C                |  27 H                |   106.85
    1 N                |   8 C                |  28 H                |   107.50
   20 C                |   8 C                |  27 H                |   110.96
   20 C                |   8 C                |  28 H                |   111.02
   27 H                |   8 C                |  28 H                |   106.27
    2 N                |   9 C                |  21 C                |   113.36
    2 N                |   9 C                |  29 H                |   107.60
    2 N                |   9 C                |  30 H                |   108.03
   21 C                |   9 C                |  29 H                |   111.07
   21 C                |   9 C                |  30 H                |   111.29
   29 H                |   9 C                |  30 H                |   105.08
    5 C                |  10 C                |  14 C                |   118.32
    5 C                |  10 C                |  18 C                |   119.90
   14 C                |  10 C                |  18 C                |   121.77
    6 C                |  11 C                |  15 C                |   118.25
    6 C                |  11 C                |  19 C                |   120.09
   15 C                |  11 C                |  19 C                |   121.67
    3 C                |  12 C                |  14 C                |   121.74
    3 C                |  12 C                |  31 H                |   118.19
   14 C                |  12 C                |  31 H                |   119.92
    4 C                |  13 C                |  15 C                |   122.03
    4 C                |  13 C                |  32 H                |   118.05
   15 C                |  13 C                |  32 H                |   119.80
   10 C                |  14 C                |  12 C                |   120.59
   10 C                |  14 C                |  33 H                |   119.02
   12 C                |  14 C                |  33 H                |   120.33
   11 C                |  15 C                |  13 C                |   120.53
   11 C                |  15 C                |  34 H                |   119.04
   13 C                |  15 C                |  34 H                |   120.43
    5 C                |  16 C                |  22 C                |   120.12
    5 C                |  16 C                |  35 H                |   121.54
   22 C                |  16 C                |  35 H                |   118.33
    6 C                |  17 C                |  23 C                |   120.37
    6 C                |  17 C                |  36 H                |   121.54
   23 C                |  17 C                |  36 H                |   118.07
   10 C                |  18 C                |  24 C                |   120.80
   10 C                |  18 C                |  37 H                |   118.31
   24 C                |  18 C                |  37 H                |   120.89
   11 C                |  19 C                |  25 C                |   120.92
   11 C                |  19 C                |  38 H                |   118.26
   25 C                |  19 C                |  38 H                |   120.83
    8 C                |  20 C                |  39 H                |   111.88
    8 C                |  20 C                |  40 H                |   108.81
    8 C                |  20 C                |  41 H                |   111.76
   39 H                |  20 C                |  40 H                |   108.13
   39 H                |  20 C                |  41 H                |   108.00
   40 H                |  20 C                |  41 H                |   108.13
    9 C                |  21 C                |  42 H                |   109.05
    9 C                |  21 C                |  43 H                |   111.65
    9 C                |  21 C                |  44 H                |   111.34
   42 H                |  21 C                |  43 H                |   108.15
   42 H                |  21 C                |  44 H                |   108.18
   43 H                |  21 C                |  44 H                |   108.36
   16 C                |  22 C                |  24 C                |   121.40
   16 C                |  22 C                |  45 H                |   118.79
   24 C                |  22 C                |  45 H                |   119.80
   17 C                |  23 C                |  25 C                |   121.39
   17 C                |  23 C                |  46 H                |   118.69
   25 C                |  23 C                |  46 H                |   119.91
   18 C                |  24 C                |  22 C                |   119.16
   18 C                |  24 C                |  47 H                |   120.56
   22 C                |  24 C                |  47 H                |   120.28
   19 C                |  25 C                |  23 C                |   118.95
   19 C                |  25 C                |  48 H                |   120.64
   23 C                |  25 C                |  48 H                |   120.41
 ------------------------------------------------------------------------------
                            number of included internuclear angles:         87
 ==============================================================================



  library name resolved from: environment
  library file name is: <
 /common/software/install/migrated/nwchem/6.5_ompi_1.7.2/src/basis/libraries/>
  


 Summary of "ao basis" -> "" (cartesian)
 ------------------------------------------------------------------------------
       Tag                 Description            Shells   Functions and Types
 ---------------- ------------------------------  ------  ---------------------
 *                          6-31+G*                   on all atoms 


 
 
                           NWChem Geometry Optimization
                           ----------------------------
 
 
 
 
                      Dye01 molecule optimization in methanol
 
 
 maximum gradient threshold         (gmax) =   0.000450
 rms gradient threshold             (grms) =   0.000300
 maximum cartesian step threshold   (xmax) =   0.001800
 rms cartesian step threshold       (xrms) =   0.001200
 fixed trust radius                (trust) =   0.300000
 maximum step size to saddle      (sadstp) =   0.100000
 energy precision                  (eprec) =   5.0D-06
 maximum number of steps          (nptopt) =  200
 initial hessian option           (inhess) =    0
 line search option               (linopt) =    1
 hessian update option            (modupd) =    1
 saddle point option              (modsad) =    0
 initial eigen-mode to follow     (moddir) =    0
 initial variable to follow       (vardir) =    0
 follow first negative mode     (firstneg) =    T
 apply conjugacy                    (opcg) =    F
 source of zmatrix                         =   autoz   


          -------------------
          Energy Minimization
          -------------------

 
 Names of Z-matrix variables 
    1              2              3              4              5         
    6              7              8              9             10         
   11             12             13             14             15         
   16             17             18             19             20         
   21             22             23             24             25         
   26             27             28             29             30         
   31             32             33             34             35         
   36             37             38             39             40         
   41             42             43             44             45         
   46             47             48             49             50         
   51             52             53             54             55         
   56             57             58             59             60         
   61             62             63             64             65         
   66             67             68             69             70         
   71             72             73             74             75         
   76             77             78             79             80         
   81             82             83             84             85         
   86             87             88             89             90         
   91             92             93             94             95         
   96             97             98             99            100         
  101            102            103            104            105         
  106            107            108            109            110         
  111            112            113            114            115         
  116            117            118            119            120         
  121            122            123            124            125         
  126            127            128            129            130         
  131            132            133            134            135         
  136            137            138            139            140         
  141            142            143            144            145         
  146            147            148            149            150         
  151            152            153            154            155         
  156            157            158            159            160         
  161            162            163            164            165         
  166            167            168            169            170         
  171            172            173            174            175         
  176            177            178            179            180         
  181            182            183            184            185         
  186            187            188            189            190         
  191            192            193            194            195         
  196            197            198            199            200         
  201            202            203            204            205         
  206            207            208            209            210         
  211            212            213            214            215         
  216            217            218            219            220         
  221            222            223            224            225         
  226            227            228            229            230         
  231            232            233            234            235         
  236            237            238            239            240         
  241            242            243            244            245         
  246            247            248            249            250         
  251            252            253            254            255         
  256            257            258            259            260         
  261            262            263            264         
 
 Variables with the same non-blank name are constrained to be equal
 
 
 Using diagonal initial Hessian 
 Scaling for Hessian diagonals: bonds = 1.00  angles = 0.25  torsions = 0.10

          --------
          Step   0
          --------
 
 
                         Geometry "geometry" -> "geometry"
                         ---------------------------------
 
 Output coordinates in angstroms (scale by  1.889725989 to convert to a.u.)
 
  No.       Tag          Charge          X              Y              Z
 ---- ---------------- ---------- -------------- -------------- --------------
    1 N                    7.0000     0.51290543     2.40433313    -0.42922004
    2 N                    7.0000     0.68563288    -2.43206491    -0.03124106
    3 C                    6.0000    -0.10486459     1.24506157    -0.00010698
    4 C                    6.0000    -0.04814063    -1.27099048    -0.22747442
    5 C                    6.0000    -0.01964921     3.67637989    -0.17524389
    6 C                    6.0000     0.08881359    -3.70344924    -0.04942181
    7 C                    6.0000     0.56118386    -0.00307701    -0.13814054
    8 C                    6.0000     1.76059458     2.30530209    -1.22938660
    9 C                    6.0000     2.14340845    -2.34195448     0.23625401
   10 C                    6.0000    -1.28177022     3.78843322     0.47549966
   11 C                    6.0000    -1.28193956    -3.83190066    -0.41251854
   12 C                    6.0000    -1.36774264     1.37507116     0.66736750
   13 C                    6.0000    -1.42395932    -1.42473134    -0.62654819
   14 C                    6.0000    -1.93839414     2.59114191     0.89006615
   15 C                    6.0000    -2.01106009    -2.64474693    -0.73283683
   16 C                    6.0000     0.65636331     4.86068716    -0.55007488
   17 C                    6.0000     0.80064005    -4.87379277     0.30191669
   18 C                    6.0000    -1.83843918     5.06473972     0.71841485
   19 C                    6.0000    -1.88728112    -5.10702607    -0.45217019
   20 C                    6.0000     3.03912626     2.41734715    -0.39788965
   21 C                    6.0000     2.47684069    -2.13652029     1.71330431
   22 C                    6.0000     0.08026101     6.10061556    -0.30248194
   23 C                    6.0000     0.17553870    -6.11521313     0.26304149
   24 C                    6.0000    -1.17149360     6.21437275     0.33123796
   25 C                    6.0000    -1.17042706    -6.24586628    -0.12247604
   26 H                    1.0000     1.63827917     0.03787578    -0.14138174
   27 H                    1.0000     1.72174740     1.35207148    -1.75918194
   28 H                    1.0000     1.72208634     3.08218652    -1.99479579
   29 H                    1.0000     2.60518901    -3.25085926    -0.14660603
   30 H                    1.0000     2.54990766    -1.53718205    -0.37701346
   31 H                    1.0000    -1.83329747     0.47988437     1.06009642
   32 H                    1.0000    -1.97427554    -0.53645025    -0.90931932
   33 H                    1.0000    -2.88294006     2.66507815     1.42355911
   34 H                    1.0000    -3.04128354    -2.73275474    -1.06917623
   35 H                    1.0000     1.62962194     4.83165209    -1.02184772
   36 H                    1.0000     1.83070157    -4.83257518     0.63046877
   37 H                    1.0000    -2.80294403     5.12012113     1.21775141
   38 H                    1.0000    -2.93288156    -5.17174466    -0.74427449
   39 H                    1.0000     3.10926927     1.62207087     0.35240519
   40 H                    1.0000     3.90437069     2.33285087    -1.06659632
   41 H                    1.0000     3.10266284     3.37958173     0.12175611
   42 H                    1.0000     3.56600616    -2.08027970     1.83007378
   43 H                    1.0000     2.04375011    -1.20741382     2.09997861
   44 H                    1.0000     2.10993583    -2.96892113     2.32454481
   45 H                    1.0000     0.61787269     6.99685387    -0.60161053
   46 H                    1.0000     0.74655614    -6.99620186     0.54536812
   47 H                    1.0000    -1.60398466     7.19351117     0.51826017
   48 H                    1.0000    -1.64177301    -7.22453390    -0.15122382
 
      Atomic Mass 
      ----------- 
 
      N                 14.003070
      C                 12.000000
      H                  1.007825
 

 Effective nuclear repulsion energy (a.u.)    2033.0168293777

            Nuclear Dipole moment (a.u.) 
            ----------------------------
        X                 Y               Z
 ---------------- ---------------- ----------------
    -0.0000000000    -0.0000000000     0.0000000000
 
 
                                 NWChem DFT Module
                                 -----------------
 
 
                      Dye01 molecule optimization in methanol
 
 
                      Basis "ao basis" -> "ao basis" (cartesian)
                      -----
  N (Nitrogen)
  ------------
            Exponent  Coefficients 
       -------------- ---------------------------------------------------------
  1 S  4.17351100E+03  0.001835
  1 S  6.27457900E+02  0.013995
  1 S  1.42902100E+02  0.068587
  1 S  4.02343300E+01  0.232241
  1 S  1.28202100E+01  0.469070
  1 S  4.39043700E+00  0.360455
 
  2 S  1.16263580E+01 -0.114961
  2 S  2.71628000E+00 -0.169118
  2 S  7.72218000E-01  1.145852
 
  3 P  1.16263580E+01  0.067580
  3 P  2.71628000E+00  0.323907
  3 P  7.72218000E-01  0.740895
 
  4 S  2.12031300E-01  1.000000
 
  5 P  2.12031300E-01  1.000000
 
  6 S  6.39000000E-02  1.000000
 
  7 P  6.39000000E-02  1.000000
 
  8 D  8.00000000E-01  1.000000
 
  C (Carbon)
  ----------
            Exponent  Coefficients 
       -------------- ---------------------------------------------------------
  1 S  3.04752490E+03  0.001835
  1 S  4.57369510E+02  0.014037
  1 S  1.03948690E+02  0.068843
  1 S  2.92101550E+01  0.232184
  1 S  9.28666300E+00  0.467941
  1 S  3.16392700E+00  0.362312
 
  2 S  7.86827240E+00 -0.119332
  2 S  1.88128850E+00 -0.160854
  2 S  5.44249300E-01  1.143456
 
  3 P  7.86827240E+00  0.068999
  3 P  1.88128850E+00  0.316424
  3 P  5.44249300E-01  0.744308
 
  4 S  1.68714400E-01  1.000000
 
  5 P  1.68714400E-01  1.000000
 
  6 S  4.38000000E-02  1.000000
 
  7 P  4.38000000E-02  1.000000
 
  8 D  8.00000000E-01  1.000000
 
  H (Hydrogen)
  ------------
            Exponent  Coefficients 
       -------------- ---------------------------------------------------------
  1 S  1.87311370E+01  0.033495
  1 S  2.82539370E+00  0.234727
  1 S  6.40121700E-01  0.813757
 
  2 S  1.61277800E-01  1.000000
 


 Summary of "ao basis" -> "ao basis" (cartesian)
 ------------------------------------------------------------------------------
       Tag                 Description            Shells   Functions and Types
 ---------------- ------------------------------  ------  ---------------------
 N                          6-31+G*                  8       19   4s3p1d
 C                          6-31+G*                  8       19   4s3p1d
 H                          6-31+G*                  2        2   2s




 Summary of "ao basis" -> "ao basis" (cartesian)
 ------------------------------------------------------------------------------
       Tag                 Description            Shells   Functions and Types
 ---------------- ------------------------------  ------  ---------------------
 N                          6-31+G*                  8       19   4s3p1d
 C                          6-31+G*                  8       19   4s3p1d
 H                          6-31+G*                  2        2   2s


 
 solvent parameters
 solvname_short: methanol
 solvname_long:  methanol                           
 dielec:       32.6130
 dielecinf:     1.7657
 nonaqueous SMD model solvent descriptors
 dielec:       32.6130
 sola:          0.4300
 solb:          0.4700
 solc:          0.0000
 solg:         31.7700
 solh:          0.0000
 soln:          1.3288

          ---------------
          -cosmo- solvent
          ---------------
 Cosmo: York-Karplus, doi: 10.1021/jp992097l
 dielectric constant -eps-     =  32.61
 screen = (eps-1)/(eps    )    =   0.96934
 surface charge correction     = lagrangian
 -lineq- algorithm             =   0
 -bem- low  level              =   3
 -bem- from -octahedral-
 gaussian surface charge width =   0.98000
 degree of switching           =   1.00000
 switching function tolerance  =   0.00010
 atomic radii = 
 --------------
    1  7.000  1.890
    2  7.000  1.890
    3  6.000  1.850
    4  6.000  1.850
    5  6.000  1.850
    6  6.000  1.850
    7  6.000  1.850
    8  6.000  1.850
    9  6.000  1.850
   10  6.000  1.850
   11  6.000  1.850
   12  6.000  1.850
   13  6.000  1.850
   14  6.000  1.850
   15  6.000  1.850
   16  6.000  1.850
   17  6.000  1.850
   18  6.000  1.850
   19  6.000  1.850
   20  6.000  1.850
   21  6.000  1.850
   22  6.000  1.850
   23  6.000  1.850
   24  6.000  1.850
   25  6.000  1.850
   26  1.000  1.200
   27  1.000  1.200
   28  1.000  1.200
   29  1.000  1.200
   30  1.000  1.200
   31  1.000  1.200
   32  1.000  1.200
   33  1.000  1.200
   34  1.000  1.200
   35  1.000  1.200
   36  1.000  1.200
   37  1.000  1.200
   38  1.000  1.200
   39  1.000  1.200
   40  1.000  1.200
   41  1.000  1.200
   42  1.000  1.200
   43  1.000  1.200
   44  1.000  1.200
   45  1.000  1.200
   46  1.000  1.200
   47  1.000  1.200
   48  1.000  1.200

 solvent accessible surface
 --------------------------

 ---------- ATOMIC COORDINATES (A.U.) ------------ VDWR(ANG.) --
     1    0.96925073    4.54353079   -0.81110826     1.890
     2    1.29565826   -4.59593627   -0.05903705     1.890
     3   -0.19816534    2.35282520   -0.00020216     1.850
     4   -0.09097260   -2.40182374   -0.42986432     1.850
     5   -0.03713163    6.94735062   -0.33116293     1.850
     6    0.16783335   -6.99850428   -0.09339367     1.850
     7    1.06048372   -0.00581470   -0.26104777     1.850
     8    3.32704134    4.35638928   -2.32320380     1.850
     9    4.05045466   -4.42565224    0.44645534     1.850
    10   -2.42219449    7.15910071    0.89856407     1.850
    11   -2.42251450   -7.24124227   -0.77954701     1.850
    12   -2.58465881    2.59850771    1.26114171     1.850
    13   -2.69089293   -2.69235184   -1.18400441     1.850
    14   -3.66303378    4.89654821    1.68198114     1.850
    15   -3.80035252   -4.99784701   -1.38486081     1.850
    16    1.24034680    9.18536685   -1.03949079     1.850
    17    1.51299032   -9.21013285    0.57053981     1.850
    18   -3.47414630    9.57097027    1.35760720     1.850
    19   -3.56644419   -9.65087990   -0.85447776     1.850
    20    5.74311587    4.56812374   -0.75190242     1.850
    21    4.68055022   -4.03743792    3.23767568     1.850
    22    0.15167132   11.52849176   -0.57160799     1.850
    23    0.33172004  -11.55607718    0.49707633     1.850
    24   -2.21380191   11.74346168    0.62594899     1.850
    25   -2.21178644  -11.80297582   -0.23144616     1.850
    26    3.09589872    0.07157485   -0.26717275     1.200
    27    3.25363081    2.55504462   -3.32437184     1.200
    28    3.25427132    5.82448797   -3.76961744     1.200
    29    4.92309338   -6.14323323   -0.27704522     1.200
    30    4.81862677   -2.90485286   -0.71245214     1.200
    31   -3.46442987    0.90684996    2.00329175     1.200
    32   -3.73083979   -1.01374397   -1.71836435     1.200
    33   -5.44796676    5.03626745    2.69013664     1.200
    34   -5.74719255   -5.16415766   -2.02045010     1.200
    35    3.07953894    9.13049853   -1.93101220     1.200
    36    3.45952434   -9.13224291    1.19141322     1.200
    37   -5.29679617    9.67562597    2.30121649     1.200
    38   -5.54234251   -9.77318029   -1.40647484     1.200
    39    5.87566695    3.06526948    0.66594924     1.200
    40    7.37819076    4.40844892   -2.01557478     1.200
    41    5.86318260    6.38648342    0.23008569     1.200
    42    6.73877451   -3.93115862    3.45833799     1.200
    43    3.86212769   -2.28168127    3.96838416     1.200
    44    3.98720057   -5.61044741    4.39275274     1.200
    45    1.16761009   13.22213660   -1.13687906     1.200
    46    1.41078654  -13.22090448    1.03059630     1.200
    47   -3.03109149   13.59376502    0.97936970     1.200
    48   -3.10250112  -13.65238947   -0.28577159     1.200
 number of segments per atom =        128
 number of   points per atom =        128
 atom (   nspa,  nppa )
 ----------------------
    1 (     24,     0 )       0
    2 (     20,     0 )       0
    3 (     21,     0 )       0
    4 (     24,     0 )       0
    5 (     24,     0 )       0
    6 (     26,     0 )       0
    7 (     29,     0 )       0
    8 (     27,     0 )       0
    9 (     32,     0 )       0
   10 (     24,     0 )       0
   11 (     26,     0 )       0
   12 (     39,     0 )       0
   13 (     40,     0 )       0
   14 (     47,     0 )       0
   15 (     46,     0 )       0
   16 (     42,     0 )       0
   17 (     41,     0 )       0
   18 (     46,     0 )       0
   19 (     46,     0 )       0
   20 (     59,     0 )       0
   21 (     58,     0 )       0
   22 (     47,     0 )       0
   23 (     49,     0 )       0
   24 (     48,     0 )       0
   25 (     51,     0 )       0
   26 (     29,     0 )       0
   27 (     45,     0 )       0
   28 (     47,     0 )       0
   29 (     47,     0 )       0
   30 (     45,     0 )       0
   31 (     48,     0 )       0
   32 (     45,     0 )       0
   33 (     55,     0 )       0
   34 (     54,     0 )       0
   35 (     45,     0 )       0
   36 (     45,     0 )       0
   37 (     55,     0 )       0
   38 (     50,     0 )       0
   39 (     52,     0 )       0
   40 (     52,     0 )       0
   41 (     55,     0 )       0
   42 (     56,     0 )       0
   43 (     57,     0 )       0
   44 (     54,     0 )       0
   45 (     54,     0 )       0
   46 (     55,     0 )       0
   47 (     54,     0 )       0
   48 (     52,     0 )       0
 number of -cosmo- surface points =     2087
 molecular surface =    373.372 angstrom**2
 molecular volume  =    201.923 angstrom**3
 ...... end of -cosmo- initialization ......


 G(SMD-CDS) energy (kcal/mol)  =    -2.688
 SMD-CDS SASA (angstrom**2)    =   421.926

  Caching 1-el integrals 
 
            General Information
            -------------------
          SCF calculation type: DFT
          Wavefunction type:  closed shell.
          No. of atoms     :    48
          No. of electrons :   174
           Alpha electrons :    87
            Beta electrons :    87
          Charge           :     1
          Spin multiplicity:     1
          Use of symmetry is: off; symmetry adaption is: off
          Maximum number of iterations: 200
          AO basis - number of functions:   521
                     number of shells:   246
          Convergence on energy requested:  1.00D-06
          Convergence on density requested:  1.00D-05
          Convergence on gradient requested:  5.00D-04
 
              XC Information
              --------------
                         B3LYP Method XC Potential
                     Hartree-Fock (Exact) Exchange  0.200          
                        Slater Exchange Functional  0.800 local    
                    Becke 1988 Exchange Functional  0.720 non-local
              Lee-Yang-Parr Correlation Functional  0.810          
                  VWN I RPA Correlation Functional  0.190 local    
 
             Grid Information
             ----------------
          Grid used for XC integration:  medium    
          Radial quadrature: Mura-Knowles        
          Angular quadrature: Lebedev. 
          Tag              B.-S. Rad. Rad. Pts. Rad. Cut. Ang. Pts.
          ---              ---------- --------- --------- ---------
          N                   0.65       49          21.0       434
          C                   0.70       49          26.0       434
          H                   0.35       45          23.0       434
          Grid pruning is: on 
          Number of quadrature shells:  2260
          Spatial weights used:  Erf1
 
          Convergence Information
          -----------------------
          Convergence aids based upon iterative change in 
          total energy or number of iterations. 
          Levelshifting, if invoked, occurs when the 
          HOMO/LUMO gap drops below (HL_TOL):  1.00D-02
          DIIS, if invoked, will attempt to extrapolate 
          using up to (NFOCK): 10 stored Fock matrices.

                    Damping( 0%)  Levelshifting(0.5)       DIIS
                  --------------- ------------------- ---------------
          dE  on:    start            ASAP                start   
          dE off:    2 iters        200 iters           200 iters 

 
      Screening Tolerance Information
      -------------------------------
          Density screening/tol_rho:  1.00D-10
          AO Gaussian exp screening on grid/accAOfunc:  14
          CD Gaussian exp screening on grid/accCDfunc:  20
          XC Gaussian exp screening on grid/accXCfunc:  20
          Schwarz screening/accCoul:  1.00D-08

 
 WARNING : Found    14 linear dependencies 
 S eigenvalue threshold:     1.00000E-05
 Smallest S eigenvalue :     1.49391E-07
 Largest  S eigenvalue :     6.97349E-06
 

 !! The overlap matrix has  14 vectors deemed linearly dependent with
    eigenvalues:
 1.49D-07 3.12D-07 5.07D-07 5.97D-07 7.04D-07 8.75D-07 1.35D-06 1.46D-06
 1.96D-06 2.49D-06 3.45D-06 4.03D-06 5.31D-06 6.97D-06
 
 
      Superposition of Atomic Density Guess
      -------------------------------------
 
 Sum of atomic energies:        -986.31094014

 Renormalizing density from     175.00 to    174
 
      Non-variational initial energy
      ------------------------------

 Total energy =   -1001.148930
 1-e energy   =   -5337.740456
 2-e energy   =    2303.574697
 HOMO         =      -0.354418
 LUMO         =      -0.236403
 
   Time after variat. SCF:     24.8
   Time prior to 1st pass:     24.8

 Integral file          = /scratch.global/lever046/nwchem/nwc_dy01_b3lyp_meth_ram.aoints.00
 Record size in doubles =    65536    No. of integs per rec  =    32766
 Max. records in memory =        0    Max. records in file   = 25112120
 No. of bits per label  =       16    No. of bits per value  =       64


 #quartets = 2.171D+08 #integrals = 3.329D+09 #direct =  0.0% #cached =100.0%


File balance: exchanges=    23  moved=  5696  time=   2.8


 Grid_pts file          = /scratch.global/lever046/nwchem/nwc_dy01_b3lyp_meth_ram.gridpts.00
 Record size in doubles =  12289        No. of grid_pts per rec  =   3070
 Max. records in memory =     23        Max. recs in file   = 133963406

 Grid integrated density:     173.873165288453
 Requested integration accuracy:   0.10E-05

           Memory utilization after 1st SCF pass: 
           Heap Space remaining (MW):       12.77            12769436
          Stack Space remaining (MW):       13.10            13101860

   convergence    iter        energy       DeltaE   RMS-Dens  Diis-err    time
 ---------------- ----- ----------------- --------- --------- ---------  ------
     COSMO gas phase
 d= 0,ls=0.0,diis     1   -978.6643230543 -3.01D+03  3.04D+02  1.14D+03    64.0
 Grid integrated density:     173.999778100590
 Requested integration accuracy:   0.10E-05
 d= 0,ls=0.0,diis     2   -974.0928721263  4.57D+00  1.81D+02  8.88D+01    77.0
 Grid integrated density:     173.999545811686
 Requested integration accuracy:   0.10E-05
 d= 0,ls=0.5,diis     3   -697.6553130362  2.76D+02  1.55D+01  1.08D+03    89.5
 d= 0,ls=0.5,diis     4   -929.8003236053 -2.32D+02  1.76D+01  3.32D+02   101.4
 d= 0,ls=0.5,diis     5   -978.2950182651 -4.85D+01  3.65D+01  1.17D+02   114.5
 d= 0,ls=0.5,diis     6   -989.4120073812 -1.11D+01  3.76D+01  7.63D+01   126.7
 d= 0,ls=0.5,diis     7   -993.1128653379 -3.70D+00  2.82D+01  6.99D+01   138.6
 d= 0,ls=0.5,diis     8   -995.0538912503 -1.94D+00  1.65D+01  6.78D+01   149.8
 d= 0,ls=0.5,diis     9   -996.1754893048 -1.12D+00  1.76D+01  6.54D+01   162.3
 d= 0,ls=0.5,diis    10   -997.0371721161 -8.62D-01  1.47D+01  6.47D+01   175.0
 d= 0,ls=0.5,diis    11   -997.8150317393 -7.78D-01  1.13D+02  6.26D+01   186.7
 d= 0,ls=0.5,diis    12  -1004.9564593449 -7.14D+00  1.12D+02  1.88D+01   198.7
 Grid integrated density:     173.999398347881
 Requested integration accuracy:   0.10E-05
 d= 0,ls=0.5,diis    13  -1006.6219274053 -1.67D+00  3.69D+01  1.02D+01   210.3
 Grid integrated density:     173.999399415377
 Requested integration accuracy:   0.10E-05
 d= 0,ls=0.5,diis    14  -1007.1187713117 -4.97D-01  1.36D+01  1.52D+00   223.1
 Grid integrated density:     173.999407178287
 Requested integration accuracy:   0.10E-05
 d= 0,ls=0.5,diis    15  -1007.3385223173 -2.20D-01  1.48D+01  4.18D-01   244.5
 Grid integrated density:     173.999441214356
 Requested integration accuracy:   0.10E-05
 d= 0,ls=0.5,diis    16  -1007.4404606819 -1.02D-01  1.17D+01  2.52D-01   256.4
 Grid integrated density:     173.999460403657
 Requested integration accuracy:   0.10E-05
 d= 0,ls=0.5,diis    17  -1007.4947058694 -5.42D-02  1.54D+01  1.49D-01   269.1
 Grid integrated density:     173.999482864549
 Requested integration accuracy:   0.10E-05
  Resetting Diis
 d= 0,ls=0.5,diis    18  -1007.5389954984 -4.43D-02  1.24D+01  5.70D-02   281.8
 Grid integrated density:     173.999523339683
 Requested integration accuracy:   0.10E-05
 d= 0,ls=0.5,diis    19  -1007.5593286370 -2.03D-02  3.49D+01  1.70D+00   294.8
 Grid integrated density:     173.999494463174
 Requested integration accuracy:   0.10E-05
 d= 0,ls=0.5,diis    20  -1007.6702597905 -1.11D-01  8.44D+00  2.67D-01   307.9
 Grid integrated density:     173.999525481525
 Requested integration accuracy:   0.10E-05
 d= 0,ls=0.5,diis    21  -1007.6940003775 -2.37D-02  7.41D+00  5.69D-02   320.9
 Grid integrated density:     173.999534099838
 Requested integration accuracy:   0.10E-05
 d= 0,ls=0.5,diis    22  -1007.7050030523 -1.10D-02  4.48D+00  1.98D-02   334.3
 Grid integrated density:     173.999539697061
 Requested integration accuracy:   0.10E-05
 d= 0,ls=0.5,diis    23  -1007.7118808753 -6.88D-03  3.75D+00  1.51D-02   347.4
 Grid integrated density:     173.999542590439
 Requested integration accuracy:   0.10E-05
 d= 0,ls=0.5,diis    24  -1007.7179021850 -6.02D-03  4.54D+00  1.35D-02   359.6
 Grid integrated density:     173.999545651205
 Requested integration accuracy:   0.10E-05
 d= 0,ls=0.5,diis    25  -1007.7241047159 -6.20D-03  4.73D+00  1.26D-02   371.8
 Grid integrated density:     173.999548947636
 Requested integration accuracy:   0.10E-05
 d= 0,ls=0.5,diis    26  -1007.7303643692 -6.26D-03  3.68D+00  1.35D-02   384.8
 Grid integrated density:     173.999551690578
 Requested integration accuracy:   0.10E-05
 d= 0,ls=0.5,diis    27  -1007.7352557608 -4.89D-03  3.86D+00  2.64D-02   399.2
 Grid integrated density:     173.999556430120
 Requested integration accuracy:   0.10E-05
 d= 0,ls=0.5,diis    28  -1007.7398703550 -4.61D-03  4.13D+00  4.44D-02   411.4
 Grid integrated density:     173.999561998108
 Requested integration accuracy:   0.10E-05
 d= 0,ls=0.5,diis    29  -1007.7442696469 -4.40D-03  4.22D+00  6.99D-02   423.9
 Grid integrated density:     173.999567885815
 Requested integration accuracy:   0.10E-05
 d= 0,ls=0.5,diis    30  -1007.7481014014 -3.83D-03  4.36D+00  1.09D-01   437.2
 Grid integrated density:     173.999574110080
 Requested integration accuracy:   0.10E-05
 d= 0,ls=0.5,diis    31  -1007.7513981084 -3.30D-03  4.81D+00  1.59D-01   450.1
 Grid integrated density:     173.999581133941
 Requested integration accuracy:   0.10E-05
 d= 0,ls=0.5,diis    32  -1007.7548398114 -3.44D-03  4.42D+00  2.21D-01   469.6
 Grid integrated density:     173.999586716658
 Requested integration accuracy:   0.10E-05
 d= 0,ls=0.5,diis    33  -1007.7554708228 -6.31D-04  4.14D+00  3.19D-01   482.4
 Grid integrated density:     173.999592217183
 Requested integration accuracy:   0.10E-05
 d= 0,ls=0.5,diis    34  -1007.7549977985  4.73D-04  4.12D+00  4.30D-01   495.1
 Grid integrated density:     173.999598169667
 Requested integration accuracy:   0.10E-05
 d= 0,ls=0.5,diis    35  -1007.7557155360 -7.18D-04  4.47D+00  5.22D-01   507.7
 Grid integrated density:     173.999604654476
 Requested integration accuracy:   0.10E-05
 d= 0,ls=0.5,diis    36  -1007.7567431914 -1.03D-03  5.01D+00  6.23D-01   519.6
 Grid integrated density:     173.999612002981
 Requested integration accuracy:   0.10E-05
 d= 0,ls=0.5,diis    37  -1007.7587187396 -1.98D-03  4.90D+00  7.19D-01   532.3
 Grid integrated density:     173.999619018270
 Requested integration accuracy:   0.10E-05
 d= 0,ls=0.5,diis    38  -1007.7599808970 -1.26D-03  3.93D+00  8.36D-01   545.0
 Grid integrated density:     173.999624329896
 Requested integration accuracy:   0.10E-05
 d= 0,ls=0.5,diis    39  -1007.7564179439  3.56D-03  3.74D+00  1.03D+00   557.6
 Grid integrated density:     173.999630009523
 Requested integration accuracy:   0.10E-05
 d= 0,ls=0.5,diis    40  -1007.7561531705  2.65D-04  6.24D+00  1.14D+00   569.7
 Grid integrated density:     173.999639006217
 Requested integration accuracy:   0.10E-05
 d= 0,ls=0.5,diis    41  -1007.7753347728 -1.92D-02  6.57D+00  9.97D-01   582.0
 Grid integrated density:     173.999646804675
 Requested integration accuracy:   0.10E-05
 d= 0,ls=0.5,diis    42  -1007.7911121152 -1.58D-02  5.58D+00  9.73D-01   594.3
 Grid integrated density:     173.999653660175
 Requested integration accuracy:   0.10E-05
 d= 0,ls=0.5,diis    43  -1007.7948313275 -3.72D-03  5.43D+00  1.14D+00   606.8
 Grid integrated density:     173.999660512827
 Requested integration accuracy:   0.10E-05
 d= 0,ls=0.5,diis    44  -1007.8022315971 -7.40D-03  4.20D+00  1.23D+00   618.7
 Grid integrated density:     173.999665037584
 Requested integration accuracy:   0.10E-05
 d= 0,ls=0.5,diis    45  -1007.8054708284 -3.24D-03  5.94D+00  1.32D+00   631.0
 Grid integrated density:     173.999670719437
 Requested integration accuracy:   0.10E-05
 d= 0,ls=0.5,diis    46  -1007.8272358981 -2.18D-02  5.52D+00  1.17D+00   651.5
 Grid integrated density:     173.999675695059
 Requested integration accuracy:   0.10E-05
 d= 0,ls=0.5,diis    47  -1007.8438496900 -1.66D-02  8.13D+00  1.13D+00   664.5
 Grid integrated density:     173.999682834663
 Requested integration accuracy:   0.10E-05
 d= 0,ls=0.5,diis    48  -1007.8896231885 -4.58D-02  5.76D+00  7.50D-01   676.0
 Grid integrated density:     173.999685590313
 Requested integration accuracy:   0.10E-05
 d= 0,ls=0.5,diis    49  -1007.9133445304 -2.37D-02  1.02D+01  6.51D-01   688.7
 Grid integrated density:     173.999684942695
 Requested integration accuracy:   0.10E-05
 d= 0,ls=0.5,diis    50  -1007.9536059344 -4.03D-02  5.13D+00  2.30D-01   701.2
 Grid integrated density:     173.999683358180
 Requested integration accuracy:   0.10E-05
 d= 0,ls=0.5,diis    51  -1007.9748411672 -2.12D-02  4.14D+00  1.30D-01   713.4
 Grid integrated density:     173.999682814402
 Requested integration accuracy:   0.10E-05
 d= 0,ls=0.5,diis    52  -1007.9903630190 -1.55D-02  2.31D+00  5.34D-02   725.1
 Grid integrated density:     173.999679175965
 Requested integration accuracy:   0.10E-05
 d= 0,ls=0.5,diis    53  -1007.9986958439 -8.33D-03  2.04D+00  2.61D-02   737.9
 Grid integrated density:     173.999673856805
 Requested integration accuracy:   0.10E-05
 d= 0,ls=0.5,diis    54  -1008.0032315829 -4.54D-03  1.62D+00  1.38D-02   750.5
 Grid integrated density:     173.999668543197
 Requested integration accuracy:   0.10E-05
 d= 0,ls=0.5,diis    55  -1008.0055375339 -2.31D-03  8.97D-01  1.12D-02   763.2
 Grid integrated density:     173.999665345002
 Requested integration accuracy:   0.10E-05
 d= 0,ls=0.5,diis    56  -1008.0069949696 -1.46D-03  7.40D-01  9.67D-03   774.8
 Grid integrated density:     173.999663457316
 Requested integration accuracy:   0.10E-05
 d= 0,ls=0.5,diis    57  -1008.0079489851 -9.54D-04  4.48D-01  8.56D-03   787.6
 Grid integrated density:     173.999662087829
 Requested integration accuracy:   0.10E-05
 d= 0,ls=0.5,diis    58  -1008.0085664324 -6.17D-04  3.24D-01  7.98D-03   800.3
 Grid integrated density:     173.999660921931
 Requested integration accuracy:   0.10E-05
 d= 0,ls=0.5,diis    59  -1008.0089432812 -3.77D-04  1.16D-01  7.92D-03   812.6
 Grid integrated density:     173.999660632910
 Requested integration accuracy:   0.10E-05
 d= 0,ls=0.5,diis    60  -1008.0092398095 -2.97D-04  2.02D-01  7.70D-03   824.4
 Grid integrated density:     173.999660572185
 Requested integration accuracy:   0.10E-05
 d= 0,ls=0.5,diis    61  -1008.0094297138 -1.90D-04  1.28D-01  7.69D-03   837.2
 Grid integrated density:     173.999660655996
 Requested integration accuracy:   0.10E-05
 d= 0,ls=0.5,diis    62  -1008.0095845895 -1.55D-04  8.25D-02  7.62D-03   849.8
 Grid integrated density:     173.999660787549
 Requested integration accuracy:   0.10E-05
 d= 0,ls=0.5,diis    63  -1008.0097206150 -1.36D-04  6.61D-02  7.46D-03   862.2
 Grid integrated density:     173.999660996388
 Requested integration accuracy:   0.10E-05
 d= 0,ls=0.5,diis    64  -1008.0098397334 -1.19D-04  2.06D-01  7.32D-03   874.1
 Grid integrated density:     173.999661268525
 Requested integration accuracy:   0.10E-05
 d= 0,ls=0.5,diis    65  -1008.0099259504 -8.62D-05  1.63D-01  7.26D-03   886.9
 Grid integrated density:     173.999661550534
 Requested integration accuracy:   0.10E-05
 d= 0,ls=0.5,diis    66  -1008.0099968805 -7.09D-05  7.00D-02  7.24D-03   899.3
 Grid integrated density:     173.999661690024
 Requested integration accuracy:   0.10E-05
 d= 0,ls=0.5,diis    67  -1008.0100514662 -5.46D-05  1.25D-01  7.21D-03   911.8
 Grid integrated density:     173.999661960347
 Requested integration accuracy:   0.10E-05
 d= 0,ls=0.5,diis    68  -1008.0100922232 -4.08D-05  3.60D-02  7.18D-03   923.7
 Grid integrated density:     173.999662090354
 Requested integration accuracy:   0.10E-05
 d= 0,ls=0.5,diis    69  -1008.0101374882 -4.53D-05  1.68D-02  7.14D-03   936.2
 Grid integrated density:     173.999662049251
 Requested integration accuracy:   0.10E-05
 d= 0,ls=0.5,diis    70  -1008.0101696887 -3.22D-05  1.24D-02  7.12D-03   948.8
 Grid integrated density:     173.999662026576
 Requested integration accuracy:   0.10E-05
 d= 0,ls=0.5,diis    71  -1008.0102073010 -3.76D-05  1.27D-02  7.11D-03   961.1
 Grid integrated density:     173.999662021116
 Requested integration accuracy:   0.10E-05
 d= 0,ls=0.5,diis    72  -1008.0102362316 -2.89D-05  1.77D-02  7.11D-03   973.1
 Grid integrated density:     173.999661959495
 Requested integration accuracy:   0.10E-05
 d= 0,ls=0.5,diis    73  -1008.0102523228 -1.61D-05  2.83D-02  7.10D-03   985.3
 Grid integrated density:     173.999661897708
 Requested integration accuracy:   0.10E-05
 d= 0,ls=0.5,diis    74  -1008.0102783416 -2.60D-05  9.38D-03  7.09D-03   998.0
 Grid integrated density:     173.999661868044
 Requested integration accuracy:   0.10E-05
 d= 0,ls=0.5,diis    75  -1008.0102992059 -2.09D-05  5.07D-02  7.09D-03  1010.4
 Grid integrated density:     173.999661757380
 Requested integration accuracy:   0.10E-05
 d= 0,ls=0.5,diis    76  -1008.0103178518 -1.86D-05  4.96D-02  7.08D-03  1022.4
 Grid integrated density:     173.999661660218
 Requested integration accuracy:   0.10E-05
 d= 0,ls=0.5,diis    77  -1008.0103380557 -2.02D-05  4.06D-02  7.07D-03  1034.6
 Grid integrated density:     173.999661592978
 Requested integration accuracy:   0.10E-05
 d= 0,ls=0.5,diis    78  -1008.0103578776 -1.98D-05  2.87D-02  7.06D-03  1047.5
 Grid integrated density:     173.999661527096
 Requested integration accuracy:   0.10E-05
 d= 0,ls=0.5,diis    79  -1008.0103724366 -1.46D-05  1.77D-02  7.06D-03  1060.2
 Grid integrated density:     173.999661482772
 Requested integration accuracy:   0.10E-05
 d= 0,ls=0.5,diis    80  -1008.0103884567 -1.60D-05  6.15D-03  7.05D-03  1072.3
 Grid integrated density:     173.999661457180
 Requested integration accuracy:   0.10E-05
 d= 0,ls=0.5,diis    81  -1008.0104119325 -2.35D-05  5.63D-03  7.05D-03  1085.5
 Grid integrated density:     173.999661437627
 Requested integration accuracy:   0.10E-05
 d= 0,ls=0.5,diis    82  -1008.0104213890 -9.46D-06  2.69D-03  7.04D-03  1100.0
 Grid integrated density:     173.999661432094
 Requested integration accuracy:   0.10E-05
 d= 0,ls=0.5,diis    83  -1008.0104384687 -1.71D-05  7.50D-03  7.04D-03  1112.4
 Grid integrated density:     173.999661427432
 Requested integration accuracy:   0.10E-05
 d= 0,ls=0.5,diis    84  -1008.0104529668 -1.45D-05  7.21D-03  7.04D-03  1124.5
 Grid integrated density:     173.999661430636
 Requested integration accuracy:   0.10E-05
[...]
    12     -2.916574   1 N  py              354      2.586324  19 C  py        
    31      2.378592   2 N  py              335     -2.389524  18 C  py        
   467     -2.388362  25 C  px               88     -2.289599   5 C  py        
   352     -2.269857  19 C  s                69      2.203262   4 C  py        
 
 Vector  498  Occ=0.000000D+00  E= 4.178314D+00
              MO Center= -3.1D-01, -4.7D-01,  1.2D-02, r^2= 1.5D+01
   Bfn.  Coefficient  Atom+Function         Bfn.  Coefficient  Atom+Function  
  ----- ------------  ---------------      ----- ------------  ---------------
    69      8.779278   4 C  py               50      8.351499   3 C  py        
   181     -6.213000  10 C  s               447      5.274867  24 C  s         
    86     -4.775981   5 C  s                88      4.799211   5 C  py        
   257     -3.855807  14 C  s               200      3.774807  11 C  s         
   409     -3.378032  22 C  s               107      3.135805   6 C  py        
 
 Vector  499  Occ=0.000000D+00  E= 4.196847D+00
              MO Center=  1.2D-02, -2.1D-01, -2.2D-01, r^2= 1.5D+01
   Bfn.  Coefficient  Atom+Function         Bfn.  Coefficient  Atom+Function  
  ----- ------------  ---------------      ----- ------------  ---------------
    69      7.773938   4 C  py               50      5.854300   3 C  py        
   126     -5.292213   7 C  py                6     -5.091401   1 N  s         
   333     -4.847140  18 C  s               181     -4.791929  10 C  s         
   466      4.223520  25 C  s               335     -4.183211  18 C  py        
   448     -4.005992  24 C  px              409      3.680258  22 C  s         
 
 Vector  500  Occ=0.000000D+00  E= 4.212591D+00
              MO Center= -1.6D-02, -2.3D-01,  1.7D-01, r^2= 1.2D+01
   Bfn.  Coefficient  Atom+Function         Bfn.  Coefficient  Atom+Function  
  ----- ------------  ---------------      ----- ------------  ---------------
    50     11.312915   3 C  py               69      8.846313   4 C  py        
   181     -6.804768  10 C  s                25      6.207515   2 N  s         
   466      5.824319  25 C  s                88      4.888970   5 C  py        
   126     -4.730018   7 C  py              314     -4.528406  17 C  s         
   447      4.548687  24 C  s                86     -4.077019   5 C  s         
 
 Vector  501  Occ=0.000000D+00  E= 4.280113D+00
              MO Center= -3.0D-01,  1.6D-01,  2.6D-03, r^2= 1.2D+01
   Bfn.  Coefficient  Atom+Function         Bfn.  Coefficient  Atom+Function  
  ----- ------------  ---------------      ----- ------------  ---------------
   352     12.958725  19 C  s                50     11.900473   3 C  py        
   467     10.953128  25 C  px              429     10.390433  23 C  px        
   238    -10.137453  13 C  s               428    -10.104308  23 C  s         
   447     -9.983633  24 C  s                69      9.843687   4 C  py        
   200      9.801774  11 C  s               219      9.166379  12 C  s         
 
 Vector  502  Occ=0.000000D+00  E= 4.299770D+00
              MO Center=  4.4D-01, -3.3D-01, -1.2D-02, r^2= 1.2D+01
   Bfn.  Coefficient  Atom+Function         Bfn.  Coefficient  Atom+Function  
  ----- ------------  ---------------      ----- ------------  ---------------
   466      3.070365  25 C  s               162      2.904582   9 C  s         
   143      2.735323   8 C  s               428     -2.443973  23 C  s         
   107     -2.362060   6 C  py               44     -1.925611   3 C  s         
   200     -1.868477  11 C  s               219      1.835691  12 C  s         
   278     -1.781981  15 C  py              158      1.678556   9 C  s         
 
 Vector  503  Occ=0.000000D+00  E= 4.354777D+00
              MO Center=  1.7D+00, -4.0D-01, -1.4D-01, r^2= 9.6D+00
   Bfn.  Coefficient  Atom+Function         Bfn.  Coefficient  Atom+Function  
  ----- ------------  ---------------      ----- ------------  ---------------
    25      5.681988   2 N  s                 6     -4.575531   1 N  s         
   310     -2.886969  17 C  s               103     -2.859483   6 C  py        
   158     -2.739627   9 C  s               139      2.716869   8 C  s         
   466     -2.707933  25 C  s               333      2.427253  18 C  s         
    44      2.413082   3 C  s               409     -2.380284  22 C  s         
 
 Vector  504  Occ=0.000000D+00  E= 4.379044D+00
              MO Center=  1.1D+00,  7.6D-01, -2.8D-01, r^2= 1.3D+01
   Bfn.  Coefficient  Atom+Function         Bfn.  Coefficient  Atom+Function  
  ----- ------------  ---------------      ----- ------------  ---------------
   428      7.213536  23 C  s               409      6.829837  22 C  s         
   352     -6.180159  19 C  s               354      5.826411  19 C  py        
   467     -5.452984  25 C  px               50     -5.283931   3 C  py        
     6     -4.633419   1 N  s                25     -4.398221   2 N  s         
   429     -4.394224  23 C  px              238      3.895297  13 C  s         
 
 Vector  505  Occ=0.000000D+00  E= 4.486811D+00
              MO Center= -5.5D-01, -1.9D-02, -3.9D-02, r^2= 2.1D+01
   Bfn.  Coefficient  Atom+Function         Bfn.  Coefficient  Atom+Function  
  ----- ------------  ---------------      ----- ------------  ---------------
   447     -7.527823  24 C  s               352      6.848694  19 C  s         
   428     -6.275467  23 C  s               354     -6.142113  19 C  py        
   467      5.659353  25 C  px              200      5.530438  11 C  s         
   409     -5.263921  22 C  s               257      5.063060  14 C  s         
   238     -4.561566  13 C  s               126     -4.355768   7 C  py        
 
 Vector  506  Occ=0.000000D+00  E= 4.501138D+00
              MO Center= -3.8D-01, -2.1D-01, -5.3D-02, r^2= 1.6D+01
   Bfn.  Coefficient  Atom+Function         Bfn.  Coefficient  Atom+Function  
  ----- ------------  ---------------      ----- ------------  ---------------
   409      4.168773  22 C  s               352     -3.382833  19 C  s         
   354      2.916308  19 C  py              428      2.875284  23 C  s         
   200     -2.661453  11 C  s               467     -2.607921  25 C  px        
    82     -2.568830   5 C  s               196      2.555809  11 C  s         
   101     -2.532883   6 C  s                50     -2.399512   3 C  py        
 
 Vector  507  Occ=0.000000D+00  E= 5.669635D+00
              MO Center= -1.3D+00,  3.8D-01, -1.6D-01, r^2= 5.1D+01
   Bfn.  Coefficient  Atom+Function         Bfn.  Coefficient  Atom+Function  
  ----- ------------  ---------------      ----- ------------  ---------------
   409     86.055892  22 C  s               466     78.252590  25 C  s         
   333    -68.788323  18 C  s               335    -60.201959  18 C  py        
   354     52.088702  19 C  py              200    -46.253405  11 C  s         
   276    -45.988945  15 C  s               448    -46.192889  24 C  px        
   219     44.174567  12 C  s               105    -40.958675   6 C  s         
 

 center of mass
 --------------
 x =  -0.08126342 y =  -0.00317989 z =  -0.01227850

 moments of inertia (a.u.)
 ------------------
       17412.408987783896           0.000000000001           0.000000000004
           0.000000000001        3110.205915042746           0.000000000000
           0.000000000004           0.000000000000       19531.230413387049
 
     Multipole analysis of the density
     ---------------------------------
 
     L   x y z        total         alpha         beta         nuclear
     -   - - -        -----         -----         ----         -------
     0   0 0 0      1.000000    -87.000000    -87.000000    175.000000
 
     1   1 0 0      5.594671      2.797335      2.797335     -0.000000
     1   0 1 0      0.522034      0.261017      0.261017     -0.000000
     1   0 0 1      0.639855      0.319928      0.319928      0.000000
 
     2   2 0 0   -268.045379   -904.473186   -904.473186   1540.900993
     2   1 1 0     -0.936377     -3.918287     -3.918287      6.900198
     2   1 0 1     14.470145      5.644286      5.644286      3.181574
     2   0 2 0   -517.134204  -4819.836911  -4819.836911   9122.539618
     2   0 1 1     12.834759     20.244788     20.244788    -27.654818
     2   0 0 2   -215.773251   -259.499004   -259.499004    303.224757
 

------------------------------------------------------------
EAF file 0: "/scratch.global/lever046/nwchem/nwc_dy01_b3lyp_meth_ram.aoints.00" size=3329753088 bytes
------------------------------------------------------------
               write      read    awrite     aread      wait
               -----      ----    ------     -----      ----
     calls:     6351       401         0   2546350   2546350
   data(b): 3.33e+09  2.10e+08  0.00e+00  1.34e+12
   time(s): 0.00e+00  0.00e+00  0.00e+00  0.00e+00  0.00e+00
rate(mb/s): 0.00e+00  0.00e+00
------------------------------------------------------------


 Parallel integral file used  101604 records with       0 large values

 ------------------------------------------------------------------------
 driver: task_gradient failed                   0
 ------------------------------------------------------------------------
 ------------------------------------------------------------------------
  current input line : 
    76: task dft optimize
 ------------------------------------------------------------------------
 ------------------------------------------------------------------------
 There is an error related to the specified geometry
 ------------------------------------------------------------------------
 For more information see the NWChem manual at 
 http://www.nwchem-sw.org/index.php/NWChem_Documentation


 For further details see manual section: 
                                                                                
                                                                                
                                                                                
                   
0:0:driver: task_gradient failed:: -1
 driver: task_gradient failed                   0
 ------------------------------------------------------------------------
 ------------------------------------------------------------------------
  current input line : 
     0: 
 ------------------------------------------------------------------------
 ------------------------------------------------------------------------
 driver: task_gradient failed                   0
 ------------------------------------------------------------------------
 ------------------------------------------------------------------------
  current input line : 
     0: 
 ------------------------------------------------------------------------
 ------------------------------------------------------------------------
 There is an error related to the specified geometry
 ------------------------------------------------------------------------
 For more information see the NWChem manual at 
 http://www.nwchem-sw.org/index.php/NWChem_Documentation

 driver: task_gradient failed                   0
 ------------------------------------------------------------------------
 ------------------------------------------------------------------------
  current input line : 
     0: 
 ------------------------------------------------------------------------
 ------------------------------------------------------------------------
 There is an error related to the specified geometry
 ------------------------------------------------------------------------
 For more information see the NWChem manual at 
 http://www.nwchem-sw.org/index.php/NWChem_Documentation


 For further details see manual section: 
                                                                                
                                                                                
                                                                                
                   
 driver: task_gradient failed                   0
 ------------------------------------------------------------------------
 ------------------------------------------------------------------------
  current input line : 
     0: 
 ------------------------------------------------------------------------
 ------------------------------------------------------------------------
 There is an error related to the specified geometry
 ------------------------------------------------------------------------
 For more information see the NWChem manual at 
 http://www.nwchem-sw.org/index.php/NWChem_Documentation


 For further details see manual section: 
                                                                                
                                                                                
                                                                                
                   
8:8:driver: task_gradient failed:: -1
 driver: task_gradient failed                   0
 ------------------------------------------------------------------------
 ------------------------------------------------------------------------
  current input line : 
     0: 
 ------------------------------------------------------------------------
 ------------------------------------------------------------------------
 There is an error related to the specified geometry
 ------------------------------------------------------------------------
 For more information see the NWChem manual at 
 http://www.nwchem-sw.org/index.php/NWChem_Documentation


 For further details see manual section: 
                                                                                
                                                                                
                                                                                
                   
9:9:driver: task_gradient failed:: -1
(rank:9 hostname:cn0253 pid:2457853):ARMCI DASSERT fail. ../../ga-5.6.3/armci/src/common/armci.c:ARMCI_Error():208 cond:0
(rank:0 hostname:cn0253 pid:2457844):ARMCI DASSERT fail. ../../ga-5.6.3/armci/src/common/armci.c:ARMCI_Error():208 cond:0
 driver: task_gradient failed                   0
 ------------------------------------------------------------------------
 ------------------------------------------------------------------------
  current input line : 
     0: 
 ------------------------------------------------------------------------
 ------------------------------------------------------------------------
 There is an error related to the specified geometry
 ------------------------------------------------------------------------
 For more information see the NWChem manual at 
 http://www.nwchem-sw.org/index.php/NWChem_Documentation


 For further details see manual section: 
                                                                                
                                                                                
                                                                                
                   
2:2:driver: task_gradient failed:: -1
(rank:2 hostname:cn0253 pid:2457846):ARMCI DASSERT fail. ../../ga-5.6.3/armci/src/common/armci.c:ARMCI_Error():208 cond:0
 driver: task_gradient failed                   0
 ------------------------------------------------------------------------
 ------------------------------------------------------------------------
  current input line : 
     0: 
 ------------------------------------------------------------------------
 ------------------------------------------------------------------------
 There is an error related to the specified geometry
 ------------------------------------------------------------------------
 For more information see the NWChem manual at 
 http://www.nwchem-sw.org/index.php/NWChem_Documentation


 For further details see manual section: 
                                                                                
                                                                                
                                                                                
                   
3:3:driver: task_gradient failed:: -1
(rank:3 hostname:cn0253 pid:2457847):ARMCI DASSERT fail. ../../ga-5.6.3/armci/src/common/armci.c:ARMCI_Error():208 cond:0
 There is an error related to the specified geometry
 ------------------------------------------------------------------------
 For more information see the NWChem manual at 
 http://www.nwchem-sw.org/index.php/NWChem_Documentation


 For further details see manual section: 
                                                                                
                                                                                
                                                                                
                   
4:4:driver: task_gradient failed:: -1
(rank:4 hostname:cn0253 pid:2457848):ARMCI DASSERT fail. ../../ga-5.6.3/armci/src/common/armci.c:ARMCI_Error():208 cond:0

 For further details see manual section: 
                                                                                
                                                                                
                                                                                
                   
5:5:driver: task_gradient failed:: -1
(rank:5 hostname:cn0253 pid:2457849):ARMCI DASSERT fail. ../../ga-5.6.3/armci/src/common/armci.c:ARMCI_Error():208 cond:0
6:6:driver: task_gradient failed:: -1
(rank:6 hostname:cn0253 pid:2457850):ARMCI DASSERT fail. ../../ga-5.6.3/armci/src/common/armci.c:ARMCI_Error():208 cond:0
 driver: task_gradient failed                   0
 ------------------------------------------------------------------------
 ------------------------------------------------------------------------
  current input line : 
     0: 
 ------------------------------------------------------------------------
 ------------------------------------------------------------------------
 There is an error related to the specified geometry
 ------------------------------------------------------------------------
 For more information see the NWChem manual at 
 http://www.nwchem-sw.org/index.php/NWChem_Documentation


 For further details see manual section: 
                                                                                
                                                                                
                                                                                
                   
7:7:driver: task_gradient failed:: -1
(rank:7 hostname:cn0253 pid:2457851):ARMCI DASSERT fail. ../../ga-5.6.3/armci/src/common/armci.c:ARMCI_Error():208 cond:0
(rank:8 hostname:cn0253 pid:2457852):ARMCI DASSERT fail. ../../ga-5.6.3/armci/src/common/armci.c:ARMCI_Error():208 cond:0
 driver: task_gradient failed                   0
 ------------------------------------------------------------------------
 ------------------------------------------------------------------------
  current input line : 
     0: 
 ------------------------------------------------------------------------
 ------------------------------------------------------------------------
 There is an error related to the specified geometry
 ------------------------------------------------------------------------
 For more information see the NWChem manual at 
 http://www.nwchem-sw.org/index.php/NWChem_Documentation


 For further details see manual section: 
                                                                                
                                                                                
                                                                                
                   
1:1:driver: task_gradient failed:: -1
(rank:1 hostname:cn0253 pid:2457845):ARMCI DASSERT fail. ../../ga-5.6.3/armci/src/common/armci.c:ARMCI_Error():208 cond:0
