
                                 *****************
                                 * O   R   C   A *
                                 *****************

                                            #,                                       
                                            ###                                      
                                            ####                                     
                                            #####                                    
                                            ######                                   
                                           ########,                                 
                                     ,,################,,,,,                         
                               ,,#################################,,                 
                          ,,##########################################,,             
                       ,#########################################, ''#####,          
                    ,#############################################,,   '####,        
                  ,##################################################,,,,####,       
                ,###########''''           ''''###############################       
              ,#####''   ,,,,##########,,,,          '''####'''          '####       
            ,##' ,,,,###########################,,,                        '##       
           ' ,,###''''                  '''############,,,                           
         ,,##''                                '''############,,,,        ,,,,,,###''
      ,#''                                            '''#######################'''  
     '                                                          ''''####''''         
             ,#######,   #######,   ,#######,      ##                                
            ,#'     '#,  ##    ##  ,#'     '#,    #''#        ######   ,####,        
            ##       ##  ##   ,#'  ##            #'  '#       #        #'  '#        
            ##       ##  #######   ##           ,######,      #####,   #    #        
            '#,     ,#'  ##    ##  '#,     ,#' ,#      #,         ##   #,  ,#        
             '#######'   ##     ##  '#######'  #'      '#     #####' # '####'        



                  #######################################################
                  #                        -***-                        #
                  #          Department of theory and spectroscopy      #
                  #    Directorship and core code : Frank Neese         #
                  #        Max Planck Institute fuer Kohlenforschung    #
                  #                Kaiser Wilhelm Platz 1               #
                  #                 D-45470 Muelheim/Ruhr               #
                  #                      Germany                        #
                  #                                                     #
                  #                  All rights reserved                #
                  #                        -***-                        #
                  #######################################################


                         Program Version 5.0.1 -  RELEASE  -


 With contributions from (in alphabetic order):
   Daniel Aravena         : Magnetic Suceptibility
   Michael Atanasov       : Ab Initio Ligand Field Theory (pilot matlab implementation)
   Alexander A. Auer      : GIAO ZORA, VPT2 properties, NMR spectrum
   Ute Becker             : Parallelization
   Giovanni Bistoni       : ED, misc. LED, open-shell LED, HFLD
   Martin Brehm           : Molecular dynamics
   Dmytro Bykov           : SCF Hessian
   Vijay G. Chilkuri      : MRCI spin determinant printing, contributions to CSF-ICE
   Dipayan Datta          : RHF DLPNO-CCSD density
   Achintya Kumar Dutta   : EOM-CC, STEOM-CC
   Dmitry Ganyushin       : Spin-Orbit,Spin-Spin,Magnetic field MRCI
   Miquel Garcia          : C-PCM and meta-GGA Hessian, CC/C-PCM, Gaussian charge scheme
   Yang Guo               : DLPNO-NEVPT2, F12-NEVPT2, CIM, IAO-localization
   Andreas Hansen         : Spin unrestricted coupled pair/coupled cluster methods
   Benjamin Helmich-Paris : MC-RPA, TRAH-SCF, COSX integrals
   Lee Huntington         : MR-EOM, pCC
   Robert Izsak           : Overlap fitted RIJCOSX, COSX-SCS-MP3, EOM
   Marcus Kettner         : VPT2
   Christian Kollmar      : KDIIS, OOCD, Brueckner-CCSD(T), CCSD density, CASPT2, CASPT2-K
   Simone Kossmann        : Meta GGA functionals, TD-DFT gradient, OOMP2, MP2 Hessian
   Martin Krupicka        : Initial AUTO-CI
   Lucas Lang             : DCDCAS
   Marvin Lechner         : AUTO-CI (C++ implementation), FIC-MRCC
   Dagmar Lenk            : GEPOL surface, SMD
   Dimitrios Liakos       : Extrapolation schemes; Compound Job, initial MDCI parallelization
   Dimitrios Manganas     : Further ROCIS development; embedding schemes
   Dimitrios Pantazis     : SARC Basis sets
   Anastasios Papadopoulos: AUTO-CI, single reference methods and gradients
   Taras Petrenko         : DFT Hessian,TD-DFT gradient, ASA, ECA, R-Raman, ABS, FL, XAS/XES, NRVS
   Peter Pinski           : DLPNO-MP2, DLPNO-MP2 Gradient
   Christoph Reimann      : Effective Core Potentials
   Marius Retegan         : Local ZFS, SOC
   Christoph Riplinger    : Optimizer, TS searches, QM/MM, DLPNO-CCSD(T), (RO)-DLPNO pert. Triples
   Tobias Risthaus        : Range-separated hybrids, TD-DFT gradient, RPA, STAB
   Michael Roemelt        : Original ROCIS implementation
   Masaaki Saitow         : Open-shell DLPNO-CCSD energy and density
   Barbara Sandhoefer     : DKH picture change effects
   Avijit Sen             : IP-ROCIS
   Kantharuban Sivalingam : CASSCF convergence, NEVPT2, FIC-MRCI
   Bernardo de Souza      : ESD, SOC TD-DFT
   Georgi Stoychev        : AutoAux, RI-MP2 NMR, DLPNO-MP2 response
   Willem Van den Heuvel  : Paramagnetic NMR
   Boris Wezisla          : Elementary symmetry handling
   Frank Wennmohs         : Technical directorship


 We gratefully acknowledge several colleagues who have allowed us to
 interface, adapt or use parts of their codes:
   Stefan Grimme, W. Hujo, H. Kruse, P. Pracht,  : VdW corrections, initial TS optimization,
                  C. Bannwarth, S. Ehlert          DFT functionals, gCP, sTDA/sTD-DF
   Ed Valeev, F. Pavosevic, A. Kumar             : LibInt (2-el integral package), F12 methods
   Garnet Chan, S. Sharma, J. Yang, R. Olivares  : DMRG
   Ulf Ekstrom                                   : XCFun DFT Library
   Mihaly Kallay                                 : mrcc  (arbitrary order and MRCC methods)
   Jiri Pittner, Ondrej Demel                    : Mk-CCSD
   Frank Weinhold                                : gennbo (NPA and NBO analysis)
   Christopher J. Cramer and Donald G. Truhlar   : smd solvation model
   Lars Goerigk                                  : TD-DFT with DH, B97 family of functionals
   V. Asgeirsson, H. Jonsson                     : NEB implementation
   FAccTs GmbH                                   : IRC, NEB, NEB-TS, DLPNO-Multilevel, CI-OPT
                                                   MM, QMMM, 2- and 3-layer-ONIOM, Crystal-QMMM,
                                                   LR-CPCM, SF, NACMEs, symmetry and pop. for TD-DFT,
                                                   nearIR, NL-DFT gradient (VV10), updates on ESD,
                                                   ML-optimized integration grids
   S Lehtola, MJT Oliveira, MAL Marques          : LibXC Library
   Liviu Ungur et al                             : ANISO software


 Your calculation uses the libint2 library for the computation of 2-el integrals
 For citations please refer to: http://libint.valeyev.net

 Your ORCA version has been built with support for libXC version: 5.1.0
 For citations please refer to: https://tddft.org/programs/libxc/

 This ORCA versions uses:
   CBLAS   interface :  Fast vector & matrix operations
   LAPACKE interface :  Fast linear algebra routines
   SCALAPACK package :  Parallel linear algebra routines
   Shared memory     :  Shared parallel matrices
   BLAS/LAPACK       :  OpenBLAS 0.3.15  USE64BITINT DYNAMIC_ARCH NO_AFFINITY Zen SINGLE_THREADED
        Core in use  :  Zen
   Copyright (c) 2011-2014, The OpenBLAS Project


Your calculation utilizes the SMD solvation module
Please cite in your paper:
A.V. Marenich, C.J. Cramer, D.G. Truhlar J. Phys. Chem. B, 113, (2009), 6378 

================================================================================

----- Orbital basis set information -----
Your calculation utilizes the basis: 6-31+G*
   H-He, Li-Ne : W. J. Hehre, R. Ditchfield and J.A. Pople, J. Chem. Phys. 56, 2257 (1972).
                 Note: He and Ne are unpublished basis sets taken from the Gaussian program.
                 Note: Li and B from J. D. Dill and J. A. Pople, J. Chem. Phys. 62, 2921 (1975).
   Na - Ar     : M. M. Francl, W. J. Pietro, W. J. Hehre, J. S. Binkley, M. S. Gordon, 
                 D. J. DeFrees and J. A. Pople, J. Chem. Phys. 77, 3654 (1982).
   K - Zn      : V. A. Rassolov, J. A. Pople, M. A. Ratner, and T. L. Windus, J. Chem. Phys. 109, 1223 (1998).
   Additional Pol./Diff. from the 6-311G equivalent.

----- AuxJ basis set information -----
Your calculation utilizes the auxiliary basis: def2/J
   F. Weigend, Phys. Chem. Chem. Phys. 8, 1057 (2006).

================================================================================
                                        WARNINGS
                       Please study these warnings very carefully!
================================================================================


WARNING: The environment variable RSH_COMMAND is not set!
  ===> : All Displacements for the Numerical Hessian calculation
         will be started on localhost

WARNING: Geometry Optimization
  ===> : Switching off AutoStart
         For restart on a previous wavefunction, please use MOREAD

INFO   : the flag for use of the SHARK integral package has been found!

================================================================================
                                       INPUT FILE
================================================================================
NAME = orc_dy01_b3lyp_meth_ram_03.inp
|  1> !B3LYP 6-31+G* opt numfreq 
|  2> %pal nprocs 20 end
|  3> %cpcm smd true SMDsolvent "methanol" end
|  4> %elprop Polar 1 end
|  5> * xyz 1 1
|  6>   N     -2.269088    0.459700   -0.750641
|  7>   N      2.558831    0.465994   -0.231280
|  8>   C     -1.170786    0.019730   -0.036555
|  9>   C      1.344557   -0.199067   -0.140274
| 10>   C     -3.584118    0.182788   -0.350444
| 11>   C      3.777142   -0.160111    0.079594
| 12>   C      0.129722    0.469747   -0.392493
| 13>   C     -2.056394    1.213010   -2.013209
| 14>   C      2.584576    1.893007   -0.640865
| 15>   C     -3.808933   -0.648823    0.783973
| 16>   C      3.798170   -1.554492    0.366958
| 17>   C     -1.413790   -0.803843    1.112326
| 18>   C      1.390902   -1.615654    0.118298
| 19>   C     -2.675770   -1.132745    1.503889
| 20>   C      2.560136   -2.268831    0.343424
| 21>   C     -4.703302    0.700909   -1.042587
| 22>   C      4.996546    0.553700    0.137699
| 23>   C     -5.130058   -0.952092    1.184601
| 24>   C      5.019824   -2.198011    0.662608
| 25>   C     -2.073158    2.732021   -1.837187
| 26>   C      2.385232    2.861512    0.524197
| 27>   C     -5.989843    0.379891   -0.627395
| 28>   C      6.182975   -0.104870    0.441101
| 29>   C     -6.215259   -0.449952    0.487055
| 30>   C      6.208563   -1.487226    0.697556
| 31>   H      0.177343    1.433418   -0.872974
| 32>   H     -1.102585    0.878251   -2.424330
| 33>   H     -2.823418    0.892203   -2.720057
| 34>   H      3.533868    2.074405   -1.142729
| 35>   H      1.825062    2.037106   -1.409871
| 36>   H     -0.565636   -1.106139    1.713656
| 37>   H      0.464772   -2.173537    0.064275
| 38>   H     -2.834771   -1.735111    2.395024
| 39>   H      2.568407   -3.344451    0.502182
| 40>   H     -4.587522    1.359420   -1.893243
| 41>   H      5.035030    1.622589   -0.025602
| 42>   H     -5.271757   -1.588767    2.054795
| 43>   H      5.002954   -3.266134    0.866619
| 44>   H     -1.284698    3.072694   -1.157036
| 45>   H     -1.908535    3.203113   -2.813884
| 46>   H     -3.033543    3.085031   -1.446000
| 47>   H      2.416632    3.889988    0.144284
| 48>   H      1.418149    2.708723    1.015855
| 49>   H      3.175635    2.750117    1.275184
| 50>   H     -6.834443    0.788361   -1.176530
| 51>   H      7.103507    0.471826    0.485281
| 52>   H     -7.229237   -0.687193    0.797385
| 53>   H      7.145607   -1.986406    0.928969
| 54> *
| 55> 
| 56> 
| 57>                          ****END OF INPUT****
================================================================================

                       *****************************
                       * Geometry Optimization Run *
                       *****************************

Geometry optimization settings:
Update method            Update   .... BFGS
Choice of coordinates    CoordSys .... Z-matrix Internals
Initial Hessian          InHess   .... Almoef's Model

Convergence Tolerances:
Energy Change            TolE     ....  5.0000e-06 Eh
Max. Gradient            TolMAXG  ....  3.0000e-04 Eh/bohr
RMS Gradient             TolRMSG  ....  1.0000e-04 Eh/bohr
Max. Displacement        TolMAXD  ....  4.0000e-03 bohr
RMS Displacement         TolRMSD  ....  2.0000e-03 bohr
Strict Convergence                ....  False
------------------------------------------------------------------------------
                        ORCA OPTIMIZATION COORDINATE SETUP
------------------------------------------------------------------------------

The optimization will be done in new redundant internal coordinates
Making redundant internal coordinates   ...  (new redundants) done
Evaluating the initial hessian          ...  (Almloef) done
Evaluating the coordinates              ...  done
Calculating the B-matrix                .... done
Calculating the G-matrix                .... done
Diagonalizing the G-matrix              .... done
Small eigenvalue found = 1.736e-03
Small eigenvalue found = 6.798e-03
Small eigenvalue found = 8.147e-03
Small eigenvalue found = 1.172e-02
Small eigenvalue found = 1.753e-02
Small eigenvalue found = 2.374e-02
Small eigenvalue found = 2.673e-02
The first mode is                       ....  126
The number of degrees of freedom        ....  138

    -----------------------------------------------------------------
                    Redundant Internal Coordinates


    -----------------------------------------------------------------
         Definition                    Initial Value    Approx d2E/dq
    -----------------------------------------------------------------
      1. B(C   2,N   0)                  1.3819         0.576413   
      2. B(C   3,N   1)                  1.3875         0.564840   
      3. B(C   4,N   0)                  1.4022         0.535087   
      4. B(C   5,N   1)                  1.4046         0.530353   
      5. B(C   6,C   3)                  1.4095         0.581558   
      6. B(C   6,C   2)                  1.4215         0.556618   
      7. B(C   7,N   0)                  1.4855         0.393974   
      8. B(C   8,N   1)                  1.4849         0.394951   
      9. B(C   9,C   4)                  1.4244         0.550550   
     10. B(C  10,C   5)                  1.4238         0.551760   
     11. B(C  11,C   2)                  1.4343         0.530935   
     12. B(C  12,C   3)                  1.4407         0.518548   
     13. B(C  13,C  11)                  1.3617         0.693376   
     14. B(C  13,C   9)                  1.4271         0.545258   
     15. B(C  14,C  10)                  1.4295         0.540340   
     16. B(C  14,C  12)                  1.3581         0.702484   
     17. B(C  15,C   4)                  1.4142         0.571557   
     18. B(C  16,C   5)                  1.4142         0.571732   
     19. B(C  17,C   9)                  1.4135         0.573222   
     20. B(C  18,C  10)                  1.4121         0.576122   
     21. B(C  19,C   7)                  1.5293         0.374581   
     22. B(C  20,C   8)                  1.5281         0.376182   
     23. B(C  21,C  15)                  1.3895         0.626016   
     24. B(C  22,C  16)                  1.3905         0.623740   
     25. B(C  23,C  21)                  1.4076         0.585592   
     26. B(C  23,C  17)                  1.3843         0.637941   
     27. B(C  24,C  22)                  1.4062         0.588749   
     28. B(C  24,C  18)                  1.3855         0.635273   
     29. B(H  25,C   6)                  1.0779         0.376517   
     30. B(H  26,C   7)                  1.0913         0.358445   
     31. B(H  27,C   7)                  1.0913         0.358420   
     32. B(H  28,C   8)                  1.0890         0.361421   
     33. B(H  29,C   8)                  1.0904         0.359557   
     34. B(H  30,C  11)                  1.0827         0.369821   
     35. B(H  31,C  12)                  1.0825         0.370120   
     36. B(H  32,C  13)                  1.0873         0.363673   
     37. B(H  33,C  14)                  1.0873         0.363684   
     38. B(H  34,C  15)                  1.0820         0.370882   
     39. B(H  35,C  16)                  1.0820         0.370873   
     40. B(H  36,C  17)                  1.0875         0.363413   
     41. B(H  37,C  18)                  1.0876         0.363339   
     42. B(H  38,C  19)                  1.0956         0.352772   
     43. B(H  39,C  19)                  1.0968         0.351219   
     44. B(H  40,C  19)                  1.0954         0.352979   
     45. B(H  41,C  20)                  1.0969         0.351150   
     46. B(H  42,C  20)                  1.0956         0.352778   
     47. B(H  43,C  20)                  1.0960         0.352302   
     48. B(H  44,C  21)                  1.0871         0.363982   
     49. B(H  45,C  22)                  1.0872         0.363881   
     50. B(H  46,C  23)                  1.0866         0.364601   
     51. B(H  47,C  24)                  1.0866         0.364574   
     52. A(C   2,N   0,C   7)          119.1323         0.390293   
     53. A(C   2,N   0,C   4)          122.3438         0.411910   
     54. A(C   4,N   0,C   7)          118.4892         0.385262   
     55. A(C   3,N   1,C   5)          122.0674         0.409785   
     56. A(C   5,N   1,C   8)          118.3202         0.384832   
     57. A(C   3,N   1,C   8)          119.5993         0.389081   
     58. A(C   6,C   2,C  11)          122.5044         0.414131   
     59. A(N   0,C   2,C  11)          117.5198         0.414016   
     60. A(N   0,C   2,C   6)          119.7983         0.417510   
     61. A(N   1,C   3,C   6)          121.0051         0.419265   
     62. A(N   1,C   3,C  12)          117.0599         0.410803   
     63. A(C   6,C   3,C  12)          121.7613         0.415622   
     64. A(N   0,C   4,C  15)          122.0151         0.413967   
     65. A(C   9,C   4,C  15)          118.6039         0.418782   
     66. A(N   0,C   4,C   9)          119.3807         0.411224   
     67. A(C  10,C   5,C  16)          118.2480         0.418969   
     68. A(N   1,C   5,C  16)          122.1414         0.413336   
     69. A(N   1,C   5,C  10)          119.6042         0.410736   
     70. A(C   3,C   6,H  25)          117.7694         0.351751   
     71. A(C   2,C   6,C   3)          126.4069         0.420902   
     72. A(C   2,C   6,H  25)          115.7912         0.349157   
     73. A(C  19,C   7,H  27)          111.0298         0.324213   
     74. A(H  26,C   7,H  27)          106.2683         0.290416   
     75. A(N   0,C   7,H  27)          107.5058         0.324958   
     76. A(C  19,C   7,H  26)          110.9561         0.324217   
     77. A(N   0,C   7,H  26)          106.8448         0.324962   
     78. A(N   0,C   7,C  19)          113.8474         0.364556   
     79. A(N   1,C   8,C  20)          113.3618         0.364977   
     80. A(H  28,C   8,H  29)          105.0793         0.290938   
     81. A(C  20,C   8,H  29)          111.2890         0.324609   
     82. A(N   1,C   8,H  29)          108.0268         0.325260   
     83. A(C  20,C   8,H  28)          111.0697         0.324885   
     84. A(N   1,C   8,H  28)          107.5969         0.325536   
     85. A(C  13,C   9,C  17)          121.7651         0.418279   
     86. A(C   4,C   9,C  13)          118.3210         0.415285   
     87. A(C   4,C   9,C  17)          119.9016         0.418999   
     88. A(C   5,C  10,C  18)          120.0880         0.419541   
     89. A(C   5,C  10,C  14)          118.2455         0.414778   
     90. A(C  14,C  10,C  18)          121.6664         0.417980   
     91. A(C  13,C  11,H  30)          119.9240         0.361312   
     92. A(C   2,C  11,H  30)          118.1934         0.345347   
     93. A(C   2,C  11,C  13)          121.7392         0.430706   
     94. A(C  14,C  12,H  31)          119.7994         0.362168   
     95. A(C   3,C  12,H  31)          118.0496         0.344028   
     96. A(C   3,C  12,C  14)          122.0279         0.429891   
     97. A(C  11,C  13,H  32)          120.3331         0.360281   
     98. A(C   9,C  13,H  32)          119.0255         0.345920   
     99. A(C   9,C  13,C  11)          120.5939         0.432771   
    100. A(C  12,C  14,H  33)          120.4332         0.361085   
    101. A(C  10,C  14,H  33)          119.0347         0.345395   
    102. A(C  10,C  14,C  12)          120.5309         0.433082   
    103. A(C  21,C  15,H  34)          118.3350         0.355258   
    104. A(C   4,C  15,H  34)          121.5384         0.349830   
    105. A(C   4,C  15,C  21)          120.1231         0.428511   
    106. A(C  22,C  16,H  35)          118.0661         0.355037   
    107. A(C   5,C  16,H  35)          121.5420         0.349846   
    108. A(C   5,C  16,C  22)          120.3743         0.428255   
    109. A(C   9,C  17,C  23)          120.8013         0.430189   
    110. A(C  23,C  17,H  36)          120.8914         0.355170   
    111. A(C   9,C  17,H  36)          118.3072         0.348802   
    112. A(C  10,C  18,C  24)          120.9159         0.430255   
    113. A(C  24,C  18,H  37)          120.8261         0.354905   
    114. A(C  10,C  18,H  37)          118.2575         0.349087   
    115. A(H  39,C  19,H  40)          108.1303         0.288796   
    116. A(H  38,C  19,H  40)          108.0014         0.288996   
    117. A(C   7,C  19,H  40)          111.7654         0.323400   
    118. A(H  38,C  19,H  39)          108.1346         0.288770   
    119. A(C   7,C  19,H  39)          108.8137         0.323135   
    120. A(C   7,C  19,H  38)          111.8655         0.323369   
    121. A(H  42,C  20,H  43)          108.3562         0.288910   
    122. A(H  41,C  20,H  43)          108.1799         0.288701   
    123. A(C   8,C  20,H  43)          111.3421         0.323525   
    124. A(H  41,C  20,H  42)          108.1478         0.288762   
    125. A(C   8,C  20,H  42)          111.6482         0.323596   
    126. A(C   8,C  20,H  41)          109.0548         0.323351   
    127. A(C  23,C  21,H  44)          119.8036         0.350153   
    128. A(C  15,C  21,H  44)          118.7921         0.354129   
    129. A(C  15,C  21,C  23)          121.4029         0.430381   
    130. A(C  24,C  22,H  45)          119.9112         0.350455   
    131. A(C  16,C  22,H  45)          118.6925         0.353894   
    132. A(C  16,C  22,C  24)          121.3949         0.430515   
    133. A(C  21,C  23,H  46)          120.2817         0.350254   
    134. A(C  17,C  23,H  46)          120.5580         0.355366   
    135. A(C  17,C  23,C  21)          119.1593         0.431842   
    136. A(C  22,C  24,H  47)          120.4063         0.350568   
    137. A(C  18,C  24,H  47)          120.6359         0.355109   
    138. A(C  18,C  24,C  22)          118.9550         0.431934   
    139. D(C   6,C   2,N   0,C   7)     10.0874         0.026627   
    140. D(C  11,C   2,N   0,C   7)   -174.6335         0.026627   
    141. D(C   6,C   2,N   0,C   4)   -172.0866         0.026627   
    142. D(C  11,C   2,N   0,C   4)      3.1925         0.026627   
    143. D(C   6,C   3,N   1,C   8)     -1.8932         0.025505   
    144. D(C   6,C   3,N   1,C   5)    176.7690         0.025505   
    145. D(C  12,C   3,N   1,C   5)     -7.9388         0.025505   
    146. D(C  12,C   3,N   1,C   8)    173.3990         0.025505   
    147. D(C  15,C   4,N   0,C   7)     -5.8862         0.022757   
    148. D(C   9,C   4,N   0,C   7)    173.8826         0.022757   
    149. D(C   9,C   4,N   0,C   2)     -3.9567         0.022757   
    150. D(C  15,C   4,N   0,C   2)    176.2745         0.022757   
    151. D(C  16,C   5,N   1,C   3)   -172.5263         0.022338   
    152. D(C  10,C   5,N   1,C   8)   -174.7831         0.022338   
    153. D(C  10,C   5,N   1,C   3)      6.5382         0.022338   
    154. D(C  16,C   5,N   1,C   8)      6.1523         0.022338   
    155. D(H  25,C   6,C   3,N   1)     13.8179         0.023242   
    156. D(H  25,C   6,C   3,C  12)   -161.2507         0.023242   
    157. D(C   2,C   6,C   3,C  12)     20.9153         0.023242   
    158. D(H  25,C   6,C   2,N   0)     27.0140         0.021213   
    159. D(C   3,C   6,C   2,C  11)     29.8503         0.021213   
    160. D(H  25,C   6,C   2,C  11)   -148.0210         0.021213   
    161. D(C   2,C   6,C   3,N   1)   -164.0160         0.023242   
    162. D(C   3,C   6,C   2,N   0)   -155.1147         0.021213   
    163. D(H  26,C   7,N   0,C   4)   -149.9918         0.013261   
    164. D(H  27,C   7,N   0,C   4)    -36.2632         0.013261   
    165. D(H  27,C   7,N   0,C   2)    141.6471         0.013261   
    166. D(H  26,C   7,N   0,C   2)     27.9184         0.013261   
    167. D(C  19,C   7,N   0,C   4)     87.1606         0.013261   
    168. D(C  19,C   7,N   0,C   2)    -94.9291         0.013261   
    169. D(C  20,C   8,N   1,C   3)     85.9599         0.013325   
    170. D(H  29,C   8,N   1,C   5)    143.4348         0.013325   
    171. D(H  29,C   8,N   1,C   3)    -37.8530         0.013325   
    172. D(H  28,C   8,N   1,C   5)     30.4659         0.013325   
    173. D(H  28,C   8,N   1,C   3)   -150.8220         0.013325   
    174. D(C  20,C   8,N   1,C   5)    -92.7522         0.013325   
    175. D(C  17,C   9,C   4,C  15)      0.7606         0.020737   
    176. D(C  17,C   9,C   4,N   0)   -179.0161         0.020737   
    177. D(C  13,C   9,C   4,C  15)   -177.9883         0.020737   
    178. D(C  13,C   9,C   4,N   0)      2.2350         0.020737   
    179. D(C  18,C  10,C   5,C  16)     -1.7755         0.020831   
    180. D(C  14,C  10,C   5,C  16)    178.3467         0.020831   
    181. D(C  14,C  10,C   5,N   1)     -0.7542         0.020831   
    182. D(C  18,C  10,C   5,N   1)    179.1237         0.020831   
    183. D(H  30,C  11,C   2,C   6)     -1.2956         0.019243   
    184. D(H  30,C  11,C   2,N   0)   -176.4376         0.019243   
    185. D(C  13,C  11,C   2,N   0)     -0.7947         0.019243   
    186. D(C  13,C  11,C   2,C   6)    174.3473         0.019243   
    187. D(H  31,C  12,C   3,C   6)      3.1026         0.018336   
    188. D(C  14,C  12,C   3,C   6)    179.0590         0.018336   
    189. D(C  14,C  12,C   3,N   1)      3.8049         0.018336   
    190. D(H  31,C  12,C   3,N   1)   -172.1515         0.018336   
    191. D(H  32,C  13,C  11,H  30)     -2.6761         0.033807   
    192. D(C   9,C  13,C  11,H  30)    174.7926         0.033807   
    193. D(H  32,C  13,C  11,C   2)   -178.2451         0.033807   
    194. D(H  32,C  13,C   9,C  17)     -1.1766         0.020327   
    195. D(C   9,C  13,C  11,C   2)     -0.7764         0.033807   
    196. D(H  32,C  13,C   9,C   4)    177.5477         0.020327   
    197. D(C  11,C  13,C   9,C  17)   -178.6781         0.020327   
    198. D(C  11,C  13,C   9,C   4)      0.0463         0.020327   
    199. D(C  12,C  14,C  10,C  18)    176.8876         0.019950   
    200. D(C  12,C  14,C  10,C   5)     -3.2366         0.019950   
    201. D(H  33,C  14,C  10,C   5)    176.3789         0.019950   
    202. D(H  33,C  14,C  12,H  31)     -2.0097         0.034777   
    203. D(H  33,C  14,C  12,C   3)   -177.8972         0.034777   
    204. D(C  10,C  14,C  12,H  31)    177.6004         0.034777   
    205. D(C  10,C  14,C  12,C   3)      1.7129         0.034777   
    206. D(H  33,C  14,C  10,C  18)     -3.4970         0.019950   
    207. D(H  34,C  15,C   4,C   9)    178.2740         0.022414   
    208. D(H  34,C  15,C   4,N   0)     -1.9554         0.022414   
    209. D(C  21,C  15,C   4,C   9)     -1.0349         0.022414   
    210. D(C  21,C  15,C   4,N   0)    178.7357         0.022414   
    211. D(H  35,C  16,C   5,C  10)   -177.1221         0.022429   
    212. D(H  35,C  16,C   5,N   1)      1.9546         0.022429   
    213. D(C  22,C  16,C   5,C  10)      1.3202         0.022429   
    214. D(C  22,C  16,C   5,N   1)   -179.6031         0.022429   
    215. D(H  36,C  17,C   9,C  13)     -1.2469         0.022551   
    216. D(H  36,C  17,C   9,C   4)   -179.9515         0.022551   
    217. D(C  23,C  17,C   9,C  13)    178.6958         0.022551   
    218. D(C  23,C  17,C   9,C   4)     -0.0088         0.022551   
    219. D(H  37,C  18,C  10,C  14)      0.5522         0.022790   
    220. D(H  37,C  18,C  10,C   5)   -179.3214         0.022790   
    221. D(C  24,C  18,C  10,C  14)   -179.1860         0.022790   
    222. D(C  24,C  18,C  10,C   5)      0.9404         0.022790   
    223. D(H  40,C  19,C   7,H  27)     60.7744         0.011200   
    224. D(H  40,C  19,C   7,H  26)    178.7196         0.011200   
    225. D(H  40,C  19,C   7,N   0)    -60.7120         0.011200   
    226. D(H  39,C  19,C   7,H  27)    -58.5666         0.011200   
    227. D(H  39,C  19,C   7,H  26)     59.3786         0.011200   
    228. D(H  39,C  19,C   7,N   0)    179.9470         0.011200   
    229. D(H  38,C  19,C   7,H  27)   -177.9748         0.011200   
    230. D(H  38,C  19,C   7,H  26)    -60.0296         0.011200   
    231. D(H  38,C  19,C   7,N   0)     60.5388         0.011200   
    232. D(H  43,C  20,C   8,H  29)   -177.2919         0.011291   
    233. D(H  43,C  20,C   8,H  28)    -60.5909         0.011291   
    234. D(H  43,C  20,C   8,N   1)     60.6959         0.011291   
    235. D(H  42,C  20,C   8,H  29)     61.4530         0.011291   
    236. D(H  42,C  20,C   8,H  28)    178.1540         0.011291   
    237. D(H  42,C  20,C   8,N   1)    -60.5592         0.011291   
    238. D(H  41,C  20,C   8,H  29)    -57.9942         0.011291   
    239. D(H  41,C  20,C   8,H  28)     58.7068         0.011291   
    240. D(H  41,C  20,C   8,N   1)    179.9936         0.011291   
    241. D(H  44,C  21,C  15,H  34)      0.8046         0.027150   
    242. D(H  44,C  21,C  15,C   4)   -179.8645         0.027150   
    243. D(C  23,C  21,C  15,H  34)   -178.7610         0.027150   
    244. D(C  23,C  21,C  15,C   4)      0.5698         0.027150   
    245. D(H  45,C  22,C  16,H  35)     -1.0826         0.026941   
    246. D(H  45,C  22,C  16,C   5)   -179.5781         0.026941   
    247. D(C  24,C  22,C  16,H  35)    178.4819         0.026941   
    248. D(C  24,C  22,C  16,C   5)     -0.0136         0.026941   
    249. D(H  46,C  23,C  21,H  44)      0.2810         0.023581   
    250. D(H  46,C  23,C  21,C  15)    179.8423         0.023581   
    251. D(C  17,C  23,C  21,H  44)   -179.3644         0.023581   
    252. D(C  17,C  23,C  21,C  15)      0.1970         0.023581   
    253. D(H  46,C  23,C  17,H  36)     -0.1772         0.028264   
    254. D(H  46,C  23,C  17,C   9)    179.8815         0.028264   
    255. D(C  21,C  23,C  17,H  36)    179.4672         0.028264   
    256. D(C  21,C  23,C  17,C   9)     -0.4741         0.028264   
    257. D(H  47,C  24,C  22,H  45)     -0.7015         0.023849   
    258. D(H  47,C  24,C  22,C  16)    179.7392         0.023849   
    259. D(C  18,C  24,C  22,H  45)    178.7006         0.023849   
    260. D(C  18,C  24,C  22,C  16)     -0.8587         0.023849   
    261. D(H  47,C  24,C  18,H  37)      0.0548         0.028012   
    262. D(H  47,C  24,C  18,C  10)    179.7862         0.028012   
    263. D(C  22,C  24,C  18,H  37)   -179.3460         0.028012   
    264. D(C  22,C  24,C  18,C  10)      0.3855         0.028012   
    -----------------------------------------------------------------

Number of atoms                         .... 48
Number of degrees of freedom            .... 264

         *************************************************************
         *                GEOMETRY OPTIMIZATION CYCLE   1            *
         *************************************************************
---------------------------------
CARTESIAN COORDINATES (ANGSTROEM)
---------------------------------
  N     -2.269088    0.459700   -0.750641
  N      2.558831    0.465994   -0.231280
  C     -1.170786    0.019730   -0.036555
  C      1.344557   -0.199067   -0.140274
  C     -3.584118    0.182788   -0.350444
  C      3.777142   -0.160111    0.079594
  C      0.129722    0.469747   -0.392493
  C     -2.056394    1.213010   -2.013209
  C      2.584576    1.893007   -0.640865
  C     -3.808933   -0.648823    0.783973
  C      3.798170   -1.554492    0.366958
  C     -1.413790   -0.803843    1.112326
  C      1.390902   -1.615654    0.118298
  C     -2.675770   -1.132745    1.503889
  C      2.560136   -2.268831    0.343424
  C     -4.703302    0.700909   -1.042587
  C      4.996546    0.553700    0.137699
  C     -5.130058   -0.952092    1.184601
  C      5.019824   -2.198011    0.662608
  C     -2.073158    2.732021   -1.837187
  C      2.385232    2.861512    0.524197
  C     -5.989843    0.379891   -0.627395
  C      6.182975   -0.104870    0.441101
  C     -6.215259   -0.449952    0.487055
  C      6.208563   -1.487226    0.697556
  H      0.177343    1.433418   -0.872974
  H     -1.102585    0.878251   -2.424330
  H     -2.823418    0.892203   -2.720057
  H      3.533868    2.074405   -1.142729
  H      1.825062    2.037106   -1.409871
  H     -0.565636   -1.106139    1.713656
  H      0.464772   -2.173537    0.064275
  H     -2.834771   -1.735111    2.395024
  H      2.568407   -3.344451    0.502182
  H     -4.587522    1.359420   -1.893243
  H      5.035030    1.622589   -0.025602
  H     -5.271757   -1.588767    2.054795
  H      5.002954   -3.266134    0.866619
  H     -1.284698    3.072694   -1.157036
  H     -1.908535    3.203113   -2.813884
  H     -3.033543    3.085031   -1.446000
  H      2.416632    3.889988    0.144284
  H      1.418149    2.708723    1.015855
  H      3.175635    2.750117    1.275184
  H     -6.834443    0.788361   -1.176530
  H      7.103507    0.471826    0.485281
  H     -7.229237   -0.687193    0.797385
  H      7.145607   -1.986406    0.928969

----------------------------
CARTESIAN COORDINATES (A.U.)
----------------------------
  NO LB      ZA    FRAG     MASS         X           Y           Z
   0 N     7.0000    0    14.007   -4.287955    0.868707   -1.418506
   1 N     7.0000    0    14.007    4.835490    0.880601   -0.437056
   2 C     6.0000    0    12.011   -2.212465    0.037284   -0.069079
   3 C     6.0000    0    12.011    2.540845   -0.376182   -0.265079
   4 C     6.0000    0    12.011   -6.773001    0.345419   -0.662243
   5 C     6.0000    0    12.011    7.137764   -0.302566    0.150411
   6 C     6.0000    0    12.011    0.245139    0.887693   -0.741704
   7 C     6.0000    0    12.011   -3.886021    2.292257   -3.804414
   8 C     6.0000    0    12.011    4.884141    3.577265   -1.211059
   9 C     6.0000    0    12.011   -7.197840   -1.226098    1.481494
  10 C     6.0000    0    12.011    7.177501   -2.937564    0.693450
  11 C     6.0000    0    12.011   -2.671676   -1.519043    2.101992
  12 C     6.0000    0    12.011    2.628424   -3.053144    0.223551
  13 C     6.0000    0    12.011   -5.056472   -2.140578    2.841938
  14 C     6.0000    0    12.011    4.837956   -4.287469    0.648977
  15 C     6.0000    0    12.011   -8.887953    1.324526   -1.970204
  16 C     6.0000    0    12.011    9.442104    1.046341    0.260213
  17 C     6.0000    0    12.011   -9.694405   -1.799193    2.238571
  18 C     6.0000    0    12.011    9.486093   -4.153639    1.252148
  19 C     6.0000    0    12.011   -3.917701    5.162771   -3.471780
  20 C     6.0000    0    12.011    4.507435    5.407474    0.990589
  21 C     6.0000    0    12.011  -11.319163    0.717890   -1.185605
  22 C     6.0000    0    12.011   11.684129   -0.198176    0.833560
  23 C     6.0000    0    12.011  -11.745137   -0.850286    0.920401
  24 C     6.0000    0    12.011   11.732484   -2.810450    1.318190
  25 H     1.0000    0     1.008    0.335130    2.708767   -1.649682
  26 H     1.0000    0     1.008   -2.083584    1.659654   -4.581320
  27 H     1.0000    0     1.008   -5.335487    1.686019   -5.140163
  28 H     1.0000    0     1.008    6.678043    3.920057   -2.159445
  29 H     1.0000    0     1.008    3.448867    3.849572   -2.664270
  30 H     1.0000    0     1.008   -1.068897   -2.090300    3.238341
  31 H     1.0000    0     1.008    0.878292   -4.107390    0.121462
  32 H     1.0000    0     1.008   -5.356941   -3.278885    4.525939
  33 H     1.0000    0     1.008    4.853586   -6.320096    0.948986
  34 H     1.0000    0     1.008   -8.669160    2.568932   -3.577711
  35 H     1.0000    0     1.008    9.514828    3.066249   -0.048381
  36 H     1.0000    0     1.008   -9.962177   -3.002335    3.883000
  37 H     1.0000    0     1.008    9.454213   -6.172099    1.637673
  38 H     1.0000    0     1.008   -2.427727    5.806550   -2.186481
  39 H     1.0000    0     1.008   -3.606608    6.053006   -5.317470
  40 H     1.0000    0     1.008   -5.732565    5.829864   -2.732544
  41 H     1.0000    0     1.008    4.566773    7.351012    0.272657
  42 H     1.0000    0     1.008    2.679913    5.118745    1.919688
  43 H     1.0000    0     1.008    6.001080    5.196968    2.409749
  44 H     1.0000    0     1.008  -12.915226    1.489786   -2.223319
  45 H     1.0000    0     1.008   13.423683    0.891622    0.917048
  46 H     1.0000    0     1.008  -13.661278   -1.298607    1.506839
  47 H     1.0000    0     1.008   13.503240   -3.753763    1.755497

--------------------------------
INTERNAL COORDINATES (ANGSTROEM)
--------------------------------
 N      0   0   0     0.000000000000     0.00000000     0.00000000
 N      1   0   0     4.855777726927     0.00000000     0.00000000
 C      1   2   0     1.381940555704    32.32283347     0.00000000
 C      2   1   3     1.387461557245    30.25842913    34.93829277
 C      1   2   4     1.402191782693   154.44714853    44.55493506
 C      2   1   3     1.404610909691   152.31109595    37.41254164
 C      4   2   1     1.409521432183   121.00510280   355.41255322
 C      1   2   4     1.485527733959    87.01302547   221.11580492
 C      2   1   3     1.484853117119    89.36866247   217.28085568
 C      5   1   2     1.424436930662   119.38067968   349.97429771
 C      6   2   1     1.423839393485   119.60419408     5.06727571
 C      3   1   2     1.434312024110   117.51981106   178.29976631
 C      4   2   1     1.440738028504   117.05985245   170.70476258
 C     12   3   1     1.361650332858   121.73923488   359.20530681
 C     13   4   2     1.358097955216   122.02789908     3.80492717
 C      5   1   2     1.414243306134   122.01505269   170.20548537
 C      6   2   1     1.414159980328   122.14139216   186.00272395
 C     10   5   1     1.413451854988   119.90157571   180.98385020
 C     11   6   2     1.412077944583   120.08798541   179.12370316
 C      8   1   2     1.529267535228   113.84739271   268.84768435
 C      9   2   1     1.528106484904   113.36179359    87.31726055
 C     16   5   1     1.389469214437   120.12309745   178.73566331
 C     17   6   2     1.390460711615   120.37431438   180.39690622
 C     18  10   5     1.384332406656   120.80131224     0.00000000
 C     19  11   6     1.385473597385   120.91590837     0.94042690
 H      7   4   2     1.077864345473   117.76942999    13.81790201
 H      8   1   2     1.091254174426   106.84483668    31.69524706
 H      8   1   2     1.091273129390   107.50578156   145.42388673
 H      9   2   1     1.089003218620   107.59694102   210.53536701
 H      9   2   1     1.090411053701   108.02684009   323.50429167
 H     12   3   1     1.082749208373   118.19343550   183.56238794
 H     13   4   2     1.082528846321   118.04963257   187.84850030
 H     14  12   3     1.087312146618   120.33309160   181.75492172
 H     15  13   4     1.087304417541   120.43323775   182.10282742
 H     16   5   1     1.081969212065   121.53840826   358.04457555
 H     17   6   2     1.081975937430   121.54196704     1.95462571
 H     18  10   5     1.087506901064   118.30722482   180.04848438
 H     19  11   6     1.087562332995   118.25746280   180.67858669
 H     20   8   1     1.095596936528   111.86548458    60.53884653
 H     20   8   1     1.096797809262   108.81366425   179.94699018
 H     20   8   1     1.095437208284   111.76544938   299.28803620
 H     21   9   2     1.096851279867   109.05481624   179.99364277
 H     21   9   2     1.095591893167   111.64823293   299.44083320
 H     21   9   2     1.095959498614   111.34206205    60.69592276
 H     22  16   5     1.087081482284   118.79208661   180.13545675
 H     23  17   6     1.087156525915   118.69249774   180.42188233
 H     24  18  10     1.086618325570   120.55802927   179.88151094
 H     25  19  11     1.086638903640   120.63590098   179.78617666

---------------------------
INTERNAL COORDINATES (A.U.)
---------------------------
 N      0   0   0     0.000000000000     0.00000000     0.00000000
 N      1   0   0     9.176090071086     0.00000000     0.00000000
 C      1   2   0     2.611489183640    32.32283347     0.00000000
 C      2   1   3     2.621922364537    30.25842913    34.93829277
 C      1   2   4     2.649758456525   154.44714853    44.55493506
 C      2   1   3     2.654329944033   152.31109595    37.41254164
 C      4   2   1     2.663609486718   121.00510280   355.41255322
 C      1   2   4     2.807240581526    87.01302547   221.11580492
 C      2   1   3     2.805965740455    89.36866247   217.28085568
 C      5   1   2     2.691795693995   119.38067968   349.97429771
 C      6   2   1     2.690666512376   119.60419408     5.06727571
 C      3   1   2     2.710456916158   117.51981106   178.29976631
 C      4   2   1     2.722600304598   117.05985245   170.70476258
 C     12   3   1     2.573146219265   121.73923488   359.20530681
 C     13   4   2     2.566433198396   122.02789908     3.80492717
 C      5   1   2     2.672532535325   122.01505269   170.20548537
 C      6   2   1     2.672375072372   122.14139216   186.00272395
 C     10   5   1     2.671036909411   119.90157571   180.98385020
 C     11   6   2     2.668440595012   120.08798541   179.12370316
 C      8   1   2     2.889896827077   113.84739271   268.84768435
 C      9   2   1     2.887702759937   113.36179359    87.31726055
 C     16   5   1     2.625716286801   120.12309745   178.73566331
 C     17   6   2     2.627589944930   120.37431438   180.39690622
 C     18  10   5     2.616009126891   120.80131224     0.00000000
 C     19  11   6     2.618165664836   120.91590837     0.94042690
 H      7   4   2     2.036868422463   117.76942999    13.81790201
 H      8   1   2     2.062171532164   106.84483668    31.69524706
 H      8   1   2     2.062207351855   107.50578156   145.42388673
 H      9   2   1     2.057917842150   107.59694102   210.53536701
 H      9   2   1     2.060578264895   108.02684009   323.50429167
 H     12   3   1     2.046099475545   118.19343550   183.56238794
 H     13   4   2     2.045683051617   118.04963257   187.84850030
 H     14  12   3     2.054722179193   120.33309160   181.75492172
 H     15  13   4     2.054707573356   120.43323775   182.10282742
 H     16   5   1     2.044625496138   121.53840826   358.04457555
 H     17   6   2     2.044638205236   121.54196704     1.95462571
 H     18  10   5     2.055090211761   118.30722482   180.04848438
 H     19  11   6     2.055194962929   118.25746280   180.67858669
 H     20   8   1     2.070378163201   111.86548458    60.53884653
 H     20   8   1     2.072647483790   108.81366425   179.94699018
 H     20   8   1     2.070076320565   111.76544938   299.28803620
 H     21   9   2     2.072748528589   109.05481624   179.99364277
 H     21   9   2     2.070368632631   111.64823293   299.44083320
 H     21   9   2     2.071063306251   111.34206205    60.69592276
 H     22  16   5     2.054286286774   118.79208661   180.13545675
 H     23  17   6     2.054428098685   118.69249774   180.42188233
 H     24  18  10     2.053411047428   120.55802927   179.88151094
 H     25  19  11     2.053449934345   120.63590098   179.78617666

---------------------
BASIS SET INFORMATION
---------------------
There are 3 groups of distinct atoms

 Group   1 Type N   : 11s5p1d contracted to 4s3p1d pattern {6311/311/1}
 Group   2 Type C   : 11s5p1d contracted to 4s3p1d pattern {6311/311/1}
 Group   3 Type H   : 4s contracted to 2s pattern {31}

Atom   0N    basis set group =>   1
Atom   1N    basis set group =>   1
Atom   2C    basis set group =>   2
Atom   3C    basis set group =>   2
Atom   4C    basis set group =>   2
Atom   5C    basis set group =>   2
Atom   6C    basis set group =>   2
Atom   7C    basis set group =>   2
Atom   8C    basis set group =>   2
Atom   9C    basis set group =>   2
Atom  10C    basis set group =>   2
Atom  11C    basis set group =>   2
Atom  12C    basis set group =>   2
Atom  13C    basis set group =>   2
Atom  14C    basis set group =>   2
Atom  15C    basis set group =>   2
Atom  16C    basis set group =>   2
Atom  17C    basis set group =>   2
Atom  18C    basis set group =>   2
Atom  19C    basis set group =>   2
Atom  20C    basis set group =>   2
Atom  21C    basis set group =>   2
Atom  22C    basis set group =>   2
Atom  23C    basis set group =>   2
Atom  24C    basis set group =>   2
Atom  25H    basis set group =>   3
Atom  26H    basis set group =>   3
Atom  27H    basis set group =>   3
Atom  28H    basis set group =>   3
Atom  29H    basis set group =>   3
Atom  30H    basis set group =>   3
Atom  31H    basis set group =>   3
Atom  32H    basis set group =>   3
Atom  33H    basis set group =>   3
Atom  34H    basis set group =>   3
Atom  35H    basis set group =>   3
Atom  36H    basis set group =>   3
Atom  37H    basis set group =>   3
Atom  38H    basis set group =>   3
Atom  39H    basis set group =>   3
Atom  40H    basis set group =>   3
Atom  41H    basis set group =>   3
Atom  42H    basis set group =>   3
Atom  43H    basis set group =>   3
Atom  44H    basis set group =>   3
Atom  45H    basis set group =>   3
Atom  46H    basis set group =>   3
Atom  47H    basis set group =>   3
---------------------------------
AUXILIARY/J BASIS SET INFORMATION
---------------------------------
There are 3 groups of distinct atoms

 Group   1 Type N   : 12s5p4d2f1g contracted to 6s4p3d1f1g pattern {711111/2111/211/2/1}
 Group   2 Type C   : 12s5p4d2f1g contracted to 6s4p3d1f1g pattern {711111/2111/211/2/1}
 Group   3 Type H   : 5s2p1d contracted to 3s1p1d pattern {311/2/1}

Atom   0N    basis set group =>   1
Atom   1N    basis set group =>   1
Atom   2C    basis set group =>   2
Atom   3C    basis set group =>   2
Atom   4C    basis set group =>   2
Atom   5C    basis set group =>   2
Atom   6C    basis set group =>   2
Atom   7C    basis set group =>   2
Atom   8C    basis set group =>   2
Atom   9C    basis set group =>   2
Atom  10C    basis set group =>   2
Atom  11C    basis set group =>   2
Atom  12C    basis set group =>   2
Atom  13C    basis set group =>   2
Atom  14C    basis set group =>   2
Atom  15C    basis set group =>   2
Atom  16C    basis set group =>   2
Atom  17C    basis set group =>   2
Atom  18C    basis set group =>   2
Atom  19C    basis set group =>   2
Atom  20C    basis set group =>   2
Atom  21C    basis set group =>   2
Atom  22C    basis set group =>   2
Atom  23C    basis set group =>   2
Atom  24C    basis set group =>   2
Atom  25H    basis set group =>   3
Atom  26H    basis set group =>   3
Atom  27H    basis set group =>   3
Atom  28H    basis set group =>   3
Atom  29H    basis set group =>   3
Atom  30H    basis set group =>   3
Atom  31H    basis set group =>   3
Atom  32H    basis set group =>   3
Atom  33H    basis set group =>   3
Atom  34H    basis set group =>   3
Atom  35H    basis set group =>   3
Atom  36H    basis set group =>   3
Atom  37H    basis set group =>   3
Atom  38H    basis set group =>   3
Atom  39H    basis set group =>   3
Atom  40H    basis set group =>   3
Atom  41H    basis set group =>   3
Atom  42H    basis set group =>   3
Atom  43H    basis set group =>   3
Atom  44H    basis set group =>   3
Atom  45H    basis set group =>   3
Atom  46H    basis set group =>   3
Atom  47H    basis set group =>   3


           ************************************************************
           *        Program running with 20 parallel MPI-processes    *
           *              working on a common directory               *
           ************************************************************
------------------------------------------------------------------------------
                           ORCA GTO INTEGRAL CALCULATION
                           -- RI-GTO INTEGRALS CHOSEN --
------------------------------------------------------------------------------
------------------------------------------------------------------------------
                   ___                                                        
                  /   \      - P O W E R E D   B Y -                         
                 /     \                                                     
                 |  |  |   _    _      __       _____    __    __             
                 |  |  |  | |  | |    /  \     |  _  \  |  |  /  |          
                  \  \/   | |  | |   /    \    | | | |  |  | /  /          
                 / \  \   | |__| |  /  /\  \   | |_| |  |  |/  /          
                |  |  |   |  __  | /  /__\  \  |    /   |      \           
                |  |  |   | |  | | |   __   |  |    \   |  |\   \          
                \     /   | |  | | |  |  |  |  | |\  \  |  | \   \       
                 \___/    |_|  |_| |__|  |__|  |_| \__\ |__|  \__/        
                                                                              
                      - O R C A' S   B I G   F R I E N D -                    
                                      &                                       
                       - I N T E G R A L  F E E D E R -                       
                                                                              
 v1 FN, 2020, v2 2021                                                         
------------------------------------------------------------------------------


Reading SHARK input file orc_dy01_b3lyp_meth_ram_03.SHARKINP.tmp ... ok
----------------------
SHARK INTEGRAL PACKAGE
----------------------

Number of atoms                             ...     48
Number of basis functions                   ...    496
Number of shells                            ...    246
Maximum angular momentum                    ...      2
Integral batch strategy                     ... SHARK/LIBINT Hybrid
RI-J (if used) integral strategy            ... SPLIT-RIJ (Revised 2003 algorithm where possible)
Printlevel                                  ...      1
Contraction scheme used                     ... SEGMENTED contraction
Coulomb Range Separation                    ... NOT USED
Exchange Range Separation                   ... NOT USED
Finite Nucleus Model                        ... NOT USED
Auxiliary Coulomb fitting basis             ... AVAILABLE
   # of basis functions in Aux-J            ...   1478
   # of shells in Aux-J                     ...    490
   Maximum angular momentum in Aux-J        ...      4
Auxiliary J/K fitting basis                 ... NOT available
Auxiliary Correlation fitting basis         ... NOT available
Auxiliary 'external' fitting basis          ... NOT available
Integral threshold                          ...     2.500000e-11
Primitive cut-off                           ...     2.500000e-12
Primitive pair pre-selection threshold      ...     2.500000e-12

Calculating pre-screening integrals         ... done (  0.2 sec) Dimension = 246
Organizing shell pair data                  ... done (  0.4 sec)
Shell pair information
Total number of shell pairs                 ...     30381
Shell pairs after pre-screening             ...     23861
Total number of primitive shell pairs       ...    134497
Primitive shell pairs kept                  ...     64495
          la=0 lb=0:   7962 shell pairs
          la=1 lb=0:   9264 shell pairs
          la=1 lb=1:   2605 shell pairs
          la=2 lb=0:   2357 shell pairs
          la=2 lb=1:   1501 shell pairs
          la=2 lb=2:    172 shell pairs

Calculating one electron integrals          ... done (  0.0 sec)
Calculating RI/J V-Matrix + Cholesky decomp.... done (  6.2 sec)
Calculating Nuclear repulsion               ... done (  0.0 sec) ENN=   2033.041761739730 Eh

SHARK setup successfully completed in   7.1 seconds

Maximum memory used throughout the entire GTOINT-calculation: 39.0 MB


           ************************************************************
           *        Program running with 20 parallel MPI-processes    *
           *              working on a common directory               *
           ************************************************************
-------------------------------------------------------------------------------
                                 ORCA SCF
-------------------------------------------------------------------------------

------------
SCF SETTINGS
------------
Hamiltonian:
 Density Functional     Method          .... DFT(GTOs)
 Exchange Functional    Exchange        .... B88
   X-Alpha parameter    XAlpha          ....  0.666667
   Becke's b parameter  XBeta           ....  0.004200
 Correlation Functional Correlation     .... LYP
 LDA part of GGA corr.  LDAOpt          .... VWN-5
 Gradients option       PostSCFGGA      .... off
 Hybrid DFT is turned on
   Fraction HF Exchange ScalHFX         ....  0.200000
   Scaling of DF-GGA-X  ScalDFX         ....  0.720000
   Scaling of DF-GGA-C  ScalDFC         ....  0.810000
   Scaling of DF-LDA-C  ScalLDAC        ....  1.000000
   Perturbative correction              ....  0.000000
   Density functional embedding theory  .... OFF
   NL short-range parameter             ....  4.800000
 RI-approximation to the Coulomb term is turned on
   Number of AuxJ basis functions       .... 1478
   RIJ-COSX (HFX calculated with COS-X)).... on


General Settings:
 Integral files         IntName         .... orc_dy01_b3lyp_meth_ram_03
 Hartree-Fock type      HFTyp           .... RHF
 Total Charge           Charge          ....    1
 Multiplicity           Mult            ....    1
 Number of Electrons    NEL             ....  174
 Basis Dimension        Dim             ....  496
 Nuclear Repulsion      ENuc            ....   2033.0417617397 Eh

Convergence Acceleration:
 DIIS                   CNVDIIS         .... on
   Start iteration      DIISMaxIt       ....    12
   Startup error        DIISStart       ....  0.200000
   # of expansion vecs  DIISMaxEq       ....     5
   Bias factor          DIISBfac        ....   1.050
   Max. coefficient     DIISMaxC        ....  10.000
 Trust-Rad. Augm. Hess. CNVTRAH         .... auto
   Auto Start mean grad. ratio tolernc. ....  1.125000
   Auto Start start iteration           ....    20
   Auto Start num. interpolation iter.  ....    10
   Max. Number of Micro iterations      ....    16
   Max. Number of Macro iterations      .... Maxiter - #DIIS iter
   Number of Davidson start vectors     ....     2
   Converg. threshold I  (grad. norm)   ....   1.000e-05
   Converg. threshold II (energy diff.) ....   1.000e-08
   Grad. Scal. Fac. for Micro threshold ....   0.100
   Minimum threshold for Micro iter.    ....   0.010
   NR start threshold (gradient norm)   ....   0.001
   Initial trust radius                 ....   0.400
   Minimum AH scaling param. (alpha)    ....   1.000
   Maximum AH scaling param. (alpha)    .... 1000.000
   Orbital update algorithm             .... Taylor
   White noise on init. David. guess    .... on
   Maximum white noise                  ....   0.010
   Quad. conv. algorithm                .... NR
 SOSCF                  CNVSOSCF        .... on
   Start iteration      SOSCFMaxIt      ....   150
   Startup grad/error   SOSCFStart      ....  0.003300
 Level Shifting         CNVShift        .... on
   Level shift para.    LevelShift      ....    0.2500
   Turn off err/grad.   ShiftErr        ....    0.0010
 Zerner damping         CNVZerner       .... off
 Static damping         CNVDamp         .... on
   Fraction old density DampFac         ....    0.7000
   Max. Damping (<1)    DampMax         ....    0.9800
   Min. Damping (>=0)   DampMin         ....    0.0000
   Turn off err/grad.   DampErr         ....    0.1000
 Fernandez-Rico         CNVRico         .... off

SCF Procedure:
 Maximum # iterations   MaxIter         ....   125
 SCF integral mode      SCFMode         .... Direct
   Integral package                     .... SHARK and LIBINT hybrid scheme
 Reset frequency        DirectResetFreq ....    20
 Integral Threshold     Thresh          ....  2.500e-11 Eh
 Primitive CutOff       TCut            ....  2.500e-12 Eh

Convergence Tolerance:
 Convergence Check Mode ConvCheckMode   .... Total+1el-Energy
 Convergence forced     ConvForced      .... 0
 Energy Change          TolE            ....  1.000e-08 Eh
 1-El. energy change                    ....  1.000e-05 Eh
 Orbital Gradient       TolG            ....  1.000e-05
 Orbital Rotation angle TolX            ....  1.000e-05
 DIIS Error             TolErr          ....  5.000e-07


Diagonalization of the overlap matrix:
Smallest eigenvalue                        ... 1.513e-07
Time for diagonalization                   ...    0.035 sec
Threshold for overlap eigenvalues          ... 1.000e-08
Number of eigenvalues below threshold      ... 0
Time for construction of square roots      ...    0.070 sec
Total time needed                          ...    0.189 sec

Time for model grid setup =    0.512 sec

------------------------------
INITIAL GUESS: MODEL POTENTIAL
------------------------------
Loading Hartree-Fock densities                     ... done
Calculating cut-offs                               ... done
Initializing the effective Hamiltonian             ... done
Setting up the integral package (SHARK)            ... done
Starting the Coulomb interaction                   ... done (   3.8 sec)
Reading the grid                                   ... done
Mapping shells                                     ... done
Starting the XC term evaluation                    ... done (   0.1 sec)
  promolecular density results
     # of electrons  =    174.995093911
     EX              =   -138.321856270
     EC              =     -5.872654728
     EX+EC           =   -144.194510998
Transforming the Hamiltonian                       ... done (   0.2 sec)
Diagonalizing the Hamiltonian                      ... done (   0.6 sec)
Back transforming the eigenvectors                 ... done (   0.1 sec)
Now organizing SCF variables                       ... done
                      ------------------
                      INITIAL GUESS DONE (   5.6 sec)
                      ------------------
-------------------
DFT GRID GENERATION
-------------------

General Integration Accuracy     IntAcc      ... 4.388
Radial Grid Type                 RadialGrid  ... OptM3 with GC (2021)
Angular Grid (max. ang.)         AngularGrid ... 4 (Lebedev-302)
Angular grid pruning method      GridPruning ... 4 (adaptive)
Weight generation scheme         WeightScheme... Becke
Basis function cutoff            BFCut       ... 1.0000e-11
Integration weight cutoff        WCut        ... 1.0000e-14
Angular grids for H and He will be reduced by one unit
Partially contracted basis set               ... off
Rotationally invariant grid construction     ... off

Total number of grid points                  ...   227212
Total number of batches                      ...     3575
Average number of points per batch           ...       63
Average number of grid points per atom       ...     4734
Time for grid setup =    1.571 sec

--------------------
COSX GRID GENERATION
--------------------

GRIDX 1
-------
General Integration Accuracy     IntAcc      ... 3.816
Radial Grid Type                 RadialGrid  ... OptM3 with GC (2021)
Angular Grid (max. ang.)         AngularGrid ... 1 (Lebedev-50)
Angular grid pruning method      GridPruning ... 4 (adaptive)
Weight generation scheme         WeightScheme... Becke
Basis function cutoff            BFCut       ... 1.0000e-11
Integration weight cutoff        WCut        ... 1.0000e-14
Angular grids for H and He will be reduced by one unit
Partially contracted basis set               ... on
Rotationally invariant grid construction     ... off

Total number of grid points                  ...    28919
Total number of batches                      ...      477
Average number of points per batch           ...       60
Average number of grid points per atom       ...      602
UseSFitting                                  ... on

GRIDX 2
-------
General Integration Accuracy     IntAcc      ... 4.020
Radial Grid Type                 RadialGrid  ... OptM3 with GC (2021)
Angular Grid (max. ang.)         AngularGrid ... 2 (Lebedev-110)
Angular grid pruning method      GridPruning ... 4 (adaptive)
Weight generation scheme         WeightScheme... Becke
Basis function cutoff            BFCut       ... 1.0000e-11
Integration weight cutoff        WCut        ... 1.0000e-14
Angular grids for H and He will be reduced by one unit
Partially contracted basis set               ... on
Rotationally invariant grid construction     ... off

Total number of grid points                  ...    66176
Total number of batches                      ...     1060
Average number of points per batch           ...       62
Average number of grid points per atom       ...     1379
UseSFitting                                  ... on

GRIDX 3
-------
General Integration Accuracy     IntAcc      ... 4.338
Radial Grid Type                 RadialGrid  ... OptM3 with GC (2021)
Angular Grid (max. ang.)         AngularGrid ... 3 (Lebedev-194)
Angular grid pruning method      GridPruning ... 4 (adaptive)
Weight generation scheme         WeightScheme... Becke
Basis function cutoff            BFCut       ... 1.0000e-11
Integration weight cutoff        WCut        ... 1.0000e-14
Angular grids for H and He will be reduced by one unit
Partially contracted basis set               ... on
Rotationally invariant grid construction     ... off

Total number of grid points                  ...   142664
Total number of batches                      ...     2254
Average number of points per batch           ...       63
Average number of grid points per atom       ...     2972
UseSFitting                                  ... on

Time for X-Grid setup             =    7.081 sec


--------------------
CPCM SOLVATION MODEL
--------------------
CPCM parameters:
  Epsilon                                         ...      32.6130
  Refrac                                          ...       1.3288
  Rsolv                                           ...       1.3000
  Surface type                                    ... GAUSSIAN VDW
  Epsilon function type                           ...         CPCM
Solvent:                                     ... METHANOL
SMD-CDS solvent descriptors:
  Soln                                       ...    1.3288
  Soln25                                     ...    1.3265
  Sola                                       ...    0.4300
  Solb                                       ...    0.4700
  Solg                                       ...   31.7700
  Solc                                       ...    0.0000
  Solh                                       ...    0.0000
Radii:
 Radius for N  used is    3.5716 Bohr (=   1.8900 Ang.)
 Radius for C  used is    3.4960 Bohr (=   1.8500 Ang.)
 Radius for H  used is    2.2677 Bohr (=   1.2000 Ang.)
Calculating surface                               ...        done! (  0.0s)
GEPOL surface points                              ...         2698
GEPOL Volume                                      ...    2357.3093
GEPOL Surface-area                                ...    1291.7049
Calculating surface distance matrix               ...        done! (  0.1s)
Performing Cholesky decomposition & store         ...        done! (  0.5s)
Overall time for CPCM initialization              ...                 0.6s
--------------
SCF ITERATIONS
--------------
ITER       Energy         Delta-E        Max-DP      RMS-DP      [F,P]     Damp
               ***  Starting incremental Fock matrix formation  ***
  0   -998.6212100711   0.000000000000 8.85010487  0.03770150  0.1648407 0.7000
  1   -998.8132704118  -0.192060340688 5.63198650  0.03233282  0.0865500 0.7000
                               ***Turning on DIIS***
  2   -998.9014675411  -0.08819712936718.72176588  0.07497000  0.0335557 0.0000
  3   -999.0275831163  -0.126115575146 4.76618203  0.03221819  0.0461063 0.0000
  4   -999.0586765807  -0.031093464387 1.51537676  0.01121972  0.0069908 0.0000
                      *** Initiating the SOSCF procedure ***
                           *** Shutting down DIIS ***
                      *** Re-Reading the Fockian *** 
                      *** Removing any level shift *** 
ITER      Energy       Delta-E        Grad      Rot      Max-DP    RMS-DP
  5   -999.05991392  -0.0012373377  0.000601  0.000601  1.471363  0.009788
               *** Restarting incremental Fock matrix formation ***
  6   -999.05990310   0.0000108212  0.000463  0.002607  1.918890  0.015057
  7   -999.05990532  -0.0000022250  0.000332  0.001240  1.405569  0.006446
  8   -999.05991773  -0.0000124092  0.000104  0.000513  1.014651  0.007389
  9   -999.05991758   0.0000001538  0.000090  0.000189  0.805503  0.007407
 10   -999.05991849  -0.0000009150  0.000015  0.000059  1.315172  0.011836
 11   -999.05991842   0.0000000710  0.000025  0.000025  4.189463  0.018143
 12   -999.05991828   0.0000001366  0.000023  0.000037 11.821372  0.042774
 13   -999.05991789   0.0000003955  0.000044  0.000030  5.872167  0.025090
 14   -999.05991842  -0.0000005270  0.000034  0.000139 24.230437  0.120243
 15   -999.05991708   0.0000013411  0.000075  0.000100 15.931550  0.080522
 16   -999.05991865  -0.0000015747  0.000014  0.000025  1.811000  0.013111
 17   -999.05991846   0.0000001859  0.000023  0.000031  4.831336  0.026124
 18   -999.05991791   0.0000005569  0.000029  0.000023  1.952201  0.015353
 19   -999.05991797  -0.0000000662  0.000022  0.000043  3.221256  0.026206

 WARNING: the maximum gradient error descreased on average only by a factor   1.0
          during the last 20 iterations

                      *** Initiating the TRAH-SCF procedure ***

              ***Rediagonalizing the Fockian in SOSCF/NRSCF***

TRAH GRIDX
----------

General Integration Accuracy     IntAcc      ... 3.067
Radial Grid Type                 RadialGrid  ... OptM3 with GC (2021)
Angular Grid (max. ang.)         AngularGrid ... 1 (Lebedev-50)
Angular grid pruning method      GridPruning ... 4 (adaptive)
Weight generation scheme         WeightScheme... Becke
Basis function cutoff            BFCut       ... 1.0000e-11
Integration weight cutoff        WCut        ... 1.0000e-14
Angular grids for H and He will be reduced by one unit
Partially contracted basis set               ... on
Rotationally invariant grid construction     ... off

Total number of grid points                  ...    15278
Total number of batches                      ...      267
Average number of points per batch           ...       57
Average number of grid points per atom       ...      318


TRAH GRID
---------

General Integration Accuracy     IntAcc      ... 3.467
Radial Grid Type                 RadialGrid  ... OptM3 with GC (2021)
Angular Grid (max. ang.)         AngularGrid ... 1 (Lebedev-50)
Angular grid pruning method      GridPruning ... 4 (adaptive)
Weight generation scheme         WeightScheme... Becke
Basis function cutoff            BFCut       ... 1.0000e-11
Integration weight cutoff        WCut        ... 1.0000e-14
Angular grids for H and He will be reduced by one unit
Partially contracted basis set               ... off
Rotationally invariant grid construction     ... off

Total number of grid points                  ...    32984
Total number of batches                      ...      537
Average number of points per batch           ...       61
Average number of grid points per atom       ...      687

 --------------------------------------------------------------------------------------------
   Iter.        energy            ||Error||_2        Shift      TRadius  Mac/Mic        Rej.
 --------------------------------------------------------------------------------------------
    0       -999.059918412127     2.564103e-03                     0.400 (TRAH MAcro)   No
    0     dE    -4.995790e-07     3.577135e-03    -9.9916e-07      0.000 (TRAH MIcro)
    0     dE    -8.455989e-07     1.537724e-04    -1.6912e-06      0.001 (TRAH MIcro)
    1       -999.059919001136     1.537873e-04                           (NR   MAcro)
    1     dE    -1.319113e-09     3.887774e-05                           (NR   MIcro)
    1     dE    -1.407319e-09     1.700824e-05                           (NR   MIcro)
    1     dE    -1.426357e-09     4.177203e-06                           (NR   MIcro)
    1     dE    -1.427546e-09     1.443295e-06                           (NR   MIcro)
    1     dE    -1.427722e-09     4.740786e-07                           (NR   MIcro)
    2       -999.059919001932     5.017285e-07                           (NR   MAcro)

               *****************************************************
               *                     SUCCESS                       *
               *           SCF CONVERGED AFTER  30 CYCLES          *
               *****************************************************

Old exchange energy                            =    -28.084116918 Eh
New exchange energy                            =    -28.084142078 Eh
Exchange energy change after final integration =     -0.000025160 Eh
Total energy after final integration           =   -999.059944162 Eh
Final COS-X integration done in                =     7.469 sec

SMD CDS free energy correction energy :                -2.68735     Kcal/mol
Total Energy after SMD CDS correction =              -999.064226730 Eh

----------------
TOTAL SCF ENERGY
----------------

Total Energy       :         -999.06422673 Eh          -27185.91971 eV

Components:
Nuclear Repulsion  :         2033.04176174 Eh           55321.87885 eV
Electronic Energy  :        -3032.10598847 Eh          -82507.79856 eV
One Electron Energy:        -5367.22022885 Eh         -146049.48744 eV
Two Electron Energy:         2335.11424038 Eh           63541.68888 eV
Max COSX asymmetry :            0.00006596 Eh               0.00179 eV
CPCM Dielectric    :           -0.07830357 Eh              -2.13075 eV
SMD CDS (Gcds)     :           -0.00428257 Eh              -0.11653 eV

Virial components:
Potential Energy   :        -1991.92621573 Eh          -54203.06796 eV
Kinetic Energy     :          992.86198900 Eh           27017.14825 eV
Virial Ratio       :            2.00624683


DFT components:
N(Alpha)           :       87.000097044371 electrons
N(Beta)            :       87.000097044371 electrons
N(Total)           :      174.000194088743 electrons
E(X)               :     -111.477447397631 Eh       
E(C)               :       -6.879357814970 Eh       
E(XC)              :     -118.356805212601 Eh       
DFET-embed. en.    :        0.000000000000 Eh       
CPCM Solvation Model Properties:
Surface-charge          :           -1.07404521
Charge-correction       :            0.00807776 Eh               0.21981 eV
Free-energy (cav+disp)  :           -0.00428257 Eh              -0.11653 eV

---------------
SCF CONVERGENCE
---------------

  Last Energy change         ...   -7.9569e-10  Tolerance :   1.0000e-08
  Last Orbital Gradient      ...    5.0173e-07  Tolerance :   1.0000e-05
  Last Orbital Rotation      ...    2.6708e-05

             **** THE GBW FILE WAS UPDATED (orc_dy01_b3lyp_meth_ram_03.gbw) ****
             **** DENSITY orc_dy01_b3lyp_meth_ram_03.scfp WAS UPDATED ****
             **** ENERGY FILE WAS UPDATED (orc_dy01_b3lyp_meth_ram_03.en.tmp) ****
             **** THE GBW FILE WAS UPDATED (orc_dy01_b3lyp_meth_ram_03.gbw) ****
             **** DENSITY orc_dy01_b3lyp_meth_ram_03.scfp WAS UPDATED ****
----------------
ORBITAL ENERGIES
----------------

  NO   OCC          E(Eh)            E(eV) 
   0   2.0000     -14.414247      -392.2316 
   1   2.0000     -14.410155      -392.1203 
   2   2.0000     -10.269395      -279.4445 
   3   2.0000     -10.267439      -279.3912 
   4   2.0000     -10.255391      -279.0634 
   5   2.0000     -10.253951      -279.0242 
   6   2.0000     -10.222988      -278.1816 
   7   2.0000     -10.222062      -278.1564 
   8   2.0000     -10.214458      -277.9495 
   9   2.0000     -10.213491      -277.9232 
  10   2.0000     -10.211758      -277.8761 
  11   2.0000     -10.210745      -277.8485 
  12   2.0000     -10.205194      -277.6975 
  13   2.0000     -10.203359      -277.6475 
  14   2.0000     -10.200670      -277.5744 
  15   2.0000     -10.199754      -277.5494 
  16   2.0000     -10.199172      -277.5336 
  17   2.0000     -10.198976      -277.5283 
  18   2.0000     -10.198226      -277.5078 
  19   2.0000     -10.197360      -277.4843 
  20   2.0000     -10.194154      -277.3970 
  21   2.0000     -10.192153      -277.3426 
  22   2.0000     -10.187802      -277.2242 
  23   2.0000     -10.173201      -276.8269 
  24   2.0000     -10.172123      -276.7975 
  25   2.0000      -1.002922       -27.2909 
  26   2.0000      -0.997531       -27.1442 
  27   2.0000      -0.872919       -23.7533 
  28   2.0000      -0.870113       -23.6770 
  29   2.0000      -0.846424       -23.0324 
  30   2.0000      -0.830817       -22.6077 
  31   2.0000      -0.802839       -21.8464 
  32   2.0000      -0.774133       -21.0652 
  33   2.0000      -0.770379       -20.9631 
  34   2.0000      -0.767972       -20.8976 
  35   2.0000      -0.751503       -20.4494 
  36   2.0000      -0.748472       -20.3670 
  37   2.0000      -0.723059       -19.6754 
  38   2.0000      -0.673718       -18.3328 
  39   2.0000      -0.663554       -18.0562 
  40   2.0000      -0.655063       -17.8252 
  41   2.0000      -0.649977       -17.6868 
  42   2.0000      -0.639699       -17.4071 
  43   2.0000      -0.614081       -16.7100 
  44   2.0000      -0.599964       -16.3259 
  45   2.0000      -0.595837       -16.2135 
  46   2.0000      -0.559284       -15.2189 
  47   2.0000      -0.552056       -15.0222 
  48   2.0000      -0.536984       -14.6121 
  49   2.0000      -0.533316       -14.5123 
  50   2.0000      -0.517810       -14.0903 
  51   2.0000      -0.505017       -13.7422 
  52   2.0000      -0.480800       -13.0832 
  53   2.0000      -0.479463       -13.0468 
  54   2.0000      -0.473338       -12.8802 
  55   2.0000      -0.471165       -12.8211 
  56   2.0000      -0.459205       -12.4956 
  57   2.0000      -0.454894       -12.3783 
  58   2.0000      -0.452619       -12.3164 
  59   2.0000      -0.450595       -12.2613 
  60   2.0000      -0.446095       -12.1389 
  61   2.0000      -0.443882       -12.0786 
  62   2.0000      -0.438007       -11.9188 
  63   2.0000      -0.431018       -11.7286 
  64   2.0000      -0.418420       -11.3858 
  65   2.0000      -0.410579       -11.1724 
  66   2.0000      -0.401423       -10.9233 
  67   2.0000      -0.396781       -10.7970 
  68   2.0000      -0.390795       -10.6341 
  69   2.0000      -0.387743       -10.5510 
  70   2.0000      -0.381537       -10.3822 
  71   2.0000      -0.375704       -10.2234 
  72   2.0000      -0.370945       -10.0939 
  73   2.0000      -0.367482        -9.9997 
  74   2.0000      -0.364026        -9.9057 
  75   2.0000      -0.356076        -9.6893 
  76   2.0000      -0.351342        -9.5605 
  77   2.0000      -0.349382        -9.5072 
  78   2.0000      -0.346800        -9.4369 
  79   2.0000      -0.343348        -9.3430 
  80   2.0000      -0.318240        -8.6598 
  81   2.0000      -0.316250        -8.6056 
  82   2.0000      -0.293677        -7.9913 
  83   2.0000      -0.268129        -7.2962 
  84   2.0000      -0.250133        -6.8065 
  85   2.0000      -0.248418        -6.7598 
  86   2.0000      -0.198932        -5.4132 
  87   0.0000      -0.090436        -2.4609 
  88   0.0000      -0.056702        -1.5429 
  89   0.0000      -0.038368        -1.0440 
  90   0.0000      -0.015852        -0.4314 
  91   0.0000      -0.010178        -0.2770 
  92   0.0000       0.002857         0.0777 
  93   0.0000       0.005316         0.1447 
  94   0.0000       0.014157         0.3852 
  95   0.0000       0.014893         0.4053 
  96   0.0000       0.022884         0.6227 
  97   0.0000       0.024009         0.6533 
  98   0.0000       0.029315         0.7977 
  99   0.0000       0.032403         0.8817 
 100   0.0000       0.036446         0.9918 
 101   0.0000       0.040505         1.1022 
 102   0.0000       0.041676         1.1340 
 103   0.0000       0.045013         1.2249 
 104   0.0000       0.051160         1.3921 
 105   0.0000       0.053883         1.4662 
 106   0.0000       0.056346         1.5332 
 107   0.0000       0.058107         1.5812 
 108   0.0000       0.060666         1.6508 
 109   0.0000       0.065964         1.7950 
 110   0.0000       0.070715         1.9242 
 111   0.0000       0.074208         2.0193 
 112   0.0000       0.075701         2.0599 
 113   0.0000       0.079459         2.1622 
 114   0.0000       0.080069         2.1788 
 115   0.0000       0.085305         2.3213 
 116   0.0000       0.086464         2.3528 
 117   0.0000       0.089195         2.4271 
 118   0.0000       0.092058         2.5050 
 119   0.0000       0.096692         2.6311 
 120   0.0000       0.097870         2.6632 
 121   0.0000       0.098991         2.6937 
 122   0.0000       0.107287         2.9194 
 123   0.0000       0.111738         3.0405 
 124   0.0000       0.113404         3.0859 
 125   0.0000       0.116255         3.1635 
 126   0.0000       0.121703         3.3117 
 127   0.0000       0.123068         3.3489 
 128   0.0000       0.127056         3.4574 
 129   0.0000       0.129209         3.5160 
 130   0.0000       0.131889         3.5889 
 131   0.0000       0.133470         3.6319 
 132   0.0000       0.139986         3.8092 
 133   0.0000       0.142577         3.8797 
 134   0.0000       0.144483         3.9316 
 135   0.0000       0.147984         4.0269 
[...]
130:   3173.93   0.004993   25.23  0.000491  (-0.021714 -0.003568  0.002581)
131:   3194.66   0.000568    2.87  0.000056  ( 0.006437 -0.003599  0.001071)
132:   3197.59   0.000400    2.02  0.000039  ( 0.005037  0.002089 -0.003049)
133:   3202.29   0.000651    3.29  0.000063  (-0.001196 -0.007732  0.001481)
134:   3204.10   0.004731   23.91  0.000461  (-0.006591 -0.019351  0.006548)
135:   3204.49   0.001251    6.32  0.000122  (-0.005199 -0.000067 -0.009735)
136:   3208.75   0.001900    9.60  0.000185  ( 0.001947 -0.009152  0.009862)
137:   3216.40   0.007025   35.50  0.000682  ( 0.023989 -0.009358  0.004308)
138:   3218.78   0.006922   34.98  0.000671  ( 0.024952  0.004388 -0.005407)
139:   3248.87   0.000262    1.32  0.000025  ( 0.004578 -0.001280 -0.001604)
140:   3256.58   0.000125    0.63  0.000012  (-0.000803  0.002988 -0.001555)
141:   3257.00   0.001041    5.26  0.000100  ( 0.007112 -0.003917  0.005816)
142:   3258.28   0.001573    7.95  0.000151  ( 0.007600  0.009433 -0.001985)
143:   3286.88   0.000071    0.36  0.000007  (-0.000728 -0.002366  0.000802)

* The epsilon (eps) is given for a Dirac delta lineshape.
** The dipole moment derivative (T) already includes vibrational overlap.

--------------
RAMAN SPECTRUM  
--------------

 Mode    freq (cm**-1)   Activity   Depolarization
-------------------------------------------------------------------
   6:        24.31      5.337136      0.715618
   7:        38.77      4.881145      0.747682
   8:        49.10      8.558437      0.729398
   9:        77.02     15.050273      0.716638
  10:        84.08     12.162467      0.690724
  11:        95.05      5.684419      0.383924
  12:       117.75      6.486179      0.615847
  13:       137.01     29.471320      0.344807
  14:       143.61      6.009660      0.236747
  15:       174.82      8.424092      0.238785
  16:       181.96      2.350947      0.714109
  17:       194.94     34.540922      0.244199
  18:       205.77     69.906323      0.229297
  19:       214.63      3.587984      0.359329
  20:       244.05      1.339178      0.481642
  21:       262.97     25.558272      0.290704
  22:       312.67     10.620160      0.185273
  23:       344.81      8.301608      0.284983
  24:       362.69      3.768322      0.415677
  25:       387.22      8.050873      0.601261
  26:       411.99      7.816012      0.671456
  27:       419.02      4.097469      0.264811
  28:       440.84     17.778905      0.577739
  29:       480.90     96.824172      0.431730
  30:       483.86     15.493451      0.734117
  31:       491.54     41.093219      0.295696
  32:       500.46      1.647811      0.397814
  33:       528.65     23.763094      0.650371
  34:       533.25     34.083917      0.292132
  35:       537.02     36.308266      0.249321
  36:       548.49     38.707513      0.319059
  37:       551.82     16.970325      0.173925
  38:       578.14     92.525975      0.211919
  39:       585.19     47.056109      0.291135
  40:       616.64    144.810559      0.247123
  41:       662.61     57.911755      0.243843
  42:       677.80     12.737630      0.191357
  43:       703.42      9.909819      0.724769
  44:       716.35    252.151155      0.108097
  45:       744.61    148.864939      0.510041
  46:       757.45     48.286382      0.559596
  47:       765.92    230.308946      0.334931
  48:       770.51     53.657311      0.630401
  49:       773.73     51.331541      0.735272
  50:       784.82    263.402624      0.400479
  51:       797.73     84.556305      0.562408
  52:       812.94     61.110499      0.670520
  53:       832.31     21.630537      0.734701
  54:       839.05      4.368919      0.735017
  55:       853.75    701.726460      0.242695
  56:       854.83    261.635577      0.266823
  57:       857.86      4.588273      0.708777
  58:       881.58     10.386661      0.330723
  59:       886.91      5.136889      0.405682
  60:       901.93     11.126737      0.684522
  61:       960.61     28.184036      0.727107
  62:       967.50     23.409701      0.238451
  63:       970.86      8.224480      0.189990
  64:       971.75     31.936571      0.233440
  65:       989.09     10.031357      0.606040
  66:      1002.48      5.205797      0.684102
  67:      1005.40      9.269580      0.226272
  68:      1012.04      8.032121      0.727192
  69:      1027.32     41.195148      0.702221
  70:      1065.39   1097.062490      0.151908
  71:      1066.83      6.133390      0.724787
  72:      1073.53     48.374209      0.520251
  73:      1077.85     18.038610      0.194604
  74:      1106.58     23.388437      0.663509
  75:      1108.93     12.900963      0.447987
  76:      1156.41   2016.913678      0.280293
  77:      1157.82    925.471768      0.321218
  78:      1168.16     25.647275      0.506596
  79:      1173.34   1017.401806      0.308757
  80:      1193.27     80.780952      0.678596
  81:      1199.75    478.219437      0.317294
  82:      1202.08    372.091099      0.285644
  83:      1216.27     32.961400      0.577626
  84:      1253.28   1156.087155      0.291694
  85:      1253.71   6479.573152      0.300910
  86:      1267.52    423.742705      0.328214
  87:      1274.12    314.494059      0.637723
  88:      1284.18     33.605749      0.502974
  89:      1310.62    442.431964      0.283317
  90:      1315.94      8.520722      0.722233
  91:      1319.43    460.109028      0.334774
  92:      1375.58   2885.388860      0.299870
  93:      1377.00  13509.558172      0.295872
  94:      1381.73   1780.212306      0.307324
  95:      1386.82   2918.418275      0.299634
  96:      1392.84   3963.111069      0.344889
  97:      1398.84    265.120072      0.345435
  98:      1407.90   1461.333441      0.354853
  99:      1415.21  10513.247262      0.305009
 100:      1424.41     62.998475      0.607840
 101:      1428.69     14.152945      0.390398
 102:      1466.67     61.420132      0.457822
 103:      1473.51   3246.375163      0.316085
 104:      1485.23     92.942221      0.475987
 105:      1488.31    197.985757      0.349885
 106:      1491.25    270.163836      0.485484
 107:      1496.90     48.874703      0.713335
 108:      1500.93     37.893152      0.704508
 109:      1509.89     48.164547      0.510805
 110:      1534.34    218.614057      0.583522
 111:      1548.31     49.371564      0.747423
 112:      1550.40     18.577015      0.473618
 113:      1557.82     49.414648      0.415397
 114:      1582.45    249.748843      0.535939
 115:      1593.76     63.405465      0.215979
 116:      1606.25   1535.161867      0.425540
 117:      1648.95    450.129530      0.569207
 118:      1651.48   1082.753456      0.311697
 119:      1654.84    413.212858      0.749765
 120:      1670.90   1299.109811      0.121907
 121:      3053.05    429.993565      0.019829
 122:      3057.06    503.914537      0.013888
 123:      3112.54    516.123194      0.227571
 124:      3117.39    243.157297      0.635841
 125:      3122.32    197.440131      0.723434
 126:      3123.50    167.349528      0.746014
 127:      3126.99    305.777106      0.250399
 128:      3139.23    246.896024      0.140453
 129:      3157.55    141.163487      0.551111
 130:      3173.93    198.178712      0.399898
 131:      3194.66    125.210262      0.738041
 132:      3197.59    183.974968      0.542373
 133:      3202.29    169.846302      0.634459
 134:      3204.10    539.990506      0.726718
 135:      3204.49    446.984859      0.638846
 136:      3208.75    494.075054      0.675872
 137:      3216.40    901.328033      0.188363
 138:      3218.78   1275.598424      0.178159
 139:      3248.87     68.813534      0.747338
 140:      3256.58    342.883913      0.101344
 141:      3257.00    368.885768      0.249567
 142:      3258.28    265.286947      0.418181
 143:      3286.88    734.866357      0.134428

The first frequency considered to be a vibration is 6
The total number of vibrations considered is 138


--------------------------
THERMOCHEMISTRY AT 298.15K
--------------------------

Temperature         ... 298.15 K
Pressure            ... 1.00 atm
Total Mass          ... 327.45 AMU

Throughout the following assumptions are being made:
  (1) The electronic state is orbitally nondegenerate
  (2) There are no thermally accessible electronically excited states
  (3) Hindered rotations indicated by low frequency modes are not
      treated as such but are treated as vibrations and this may
      cause some error
  (4) All equations used are the standard statistical mechanics
      equations for an ideal gas
  (5) All vibrations are strictly harmonic

freq.      24.31  E(vib)   ...       0.56 
freq.      38.77  E(vib)   ...       0.54 
freq.      49.10  E(vib)   ...       0.53 
freq.      77.02  E(vib)   ...       0.49 
freq.      84.08  E(vib)   ...       0.48 
freq.      95.05  E(vib)   ...       0.47 
freq.     117.75  E(vib)   ...       0.44 
freq.     137.01  E(vib)   ...       0.42 
freq.     143.61  E(vib)   ...       0.41 
freq.     174.82  E(vib)   ...       0.38 
freq.     181.96  E(vib)   ...       0.37 
freq.     194.94  E(vib)   ...       0.36 
freq.     205.77  E(vib)   ...       0.35 
freq.     214.63  E(vib)   ...       0.34 
freq.     244.05  E(vib)   ...       0.31 
freq.     262.97  E(vib)   ...       0.29 
freq.     312.67  E(vib)   ...       0.25 
freq.     344.81  E(vib)   ...       0.23 
freq.     362.69  E(vib)   ...       0.22 
freq.     387.22  E(vib)   ...       0.20 
freq.     411.99  E(vib)   ...       0.19 
freq.     419.02  E(vib)   ...       0.18 
freq.     440.84  E(vib)   ...       0.17 
freq.     480.90  E(vib)   ...       0.15 
freq.     483.86  E(vib)   ...       0.15 
freq.     491.54  E(vib)   ...       0.14 
freq.     500.46  E(vib)   ...       0.14 
freq.     528.65  E(vib)   ...       0.13 
freq.     533.25  E(vib)   ...       0.13 
freq.     537.02  E(vib)   ...       0.12 
freq.     548.49  E(vib)   ...       0.12 
freq.     551.82  E(vib)   ...       0.12 
freq.     578.14  E(vib)   ...       0.11 
freq.     585.19  E(vib)   ...       0.11 
freq.     616.64  E(vib)   ...       0.09 
freq.     662.61  E(vib)   ...       0.08 
freq.     677.80  E(vib)   ...       0.08 
freq.     703.42  E(vib)   ...       0.07 
freq.     716.35  E(vib)   ...       0.07 
freq.     744.61  E(vib)   ...       0.06 
freq.     757.45  E(vib)   ...       0.06 
freq.     765.92  E(vib)   ...       0.06 
freq.     770.51  E(vib)   ...       0.05 
freq.     773.73  E(vib)   ...       0.05 
freq.     784.82  E(vib)   ...       0.05 
freq.     797.73  E(vib)   ...       0.05 
freq.     812.94  E(vib)   ...       0.05 
freq.     832.31  E(vib)   ...       0.04 
freq.     839.05  E(vib)   ...       0.04 
freq.     853.75  E(vib)   ...       0.04 
freq.     854.83  E(vib)   ...       0.04 
freq.     857.86  E(vib)   ...       0.04 
freq.     881.58  E(vib)   ...       0.04 
freq.     886.91  E(vib)   ...       0.04 
freq.     901.93  E(vib)   ...       0.03 
freq.     960.61  E(vib)   ...       0.03 
freq.     967.50  E(vib)   ...       0.03 
freq.     970.86  E(vib)   ...       0.03 
freq.     971.75  E(vib)   ...       0.03 
freq.     989.09  E(vib)   ...       0.02 
freq.    1002.48  E(vib)   ...       0.02 
freq.    1005.40  E(vib)   ...       0.02 
freq.    1012.04  E(vib)   ...       0.02 
freq.    1027.32  E(vib)   ...       0.02 
freq.    1065.39  E(vib)   ...       0.02 
freq.    1066.83  E(vib)   ...       0.02 
freq.    1073.53  E(vib)   ...       0.02 
freq.    1077.85  E(vib)   ...       0.02 
freq.    1106.58  E(vib)   ...       0.02 
freq.    1108.93  E(vib)   ...       0.02 
freq.    1156.41  E(vib)   ...       0.01 
freq.    1157.82  E(vib)   ...       0.01 
freq.    1168.16  E(vib)   ...       0.01 
freq.    1173.34  E(vib)   ...       0.01 
freq.    1193.27  E(vib)   ...       0.01 
freq.    1199.75  E(vib)   ...       0.01 
freq.    1202.08  E(vib)   ...       0.01 
freq.    1216.27  E(vib)   ...       0.01 
freq.    1253.28  E(vib)   ...       0.01 
freq.    1253.71  E(vib)   ...       0.01 
freq.    1267.52  E(vib)   ...       0.01 
freq.    1274.12  E(vib)   ...       0.01 
freq.    1284.18  E(vib)   ...       0.01 
freq.    1310.62  E(vib)   ...       0.01 
freq.    1315.94  E(vib)   ...       0.01 
freq.    1319.43  E(vib)   ...       0.01 
freq.    1375.58  E(vib)   ...       0.01 
freq.    1377.00  E(vib)   ...       0.01 
freq.    1381.73  E(vib)   ...       0.01 
freq.    1386.82  E(vib)   ...       0.00 
freq.    1392.84  E(vib)   ...       0.00 
freq.    1398.84  E(vib)   ...       0.00 
freq.    1407.90  E(vib)   ...       0.00 
freq.    1415.21  E(vib)   ...       0.00 
freq.    1424.41  E(vib)   ...       0.00 
freq.    1428.69  E(vib)   ...       0.00 
freq.    1466.67  E(vib)   ...       0.00 
freq.    1473.51  E(vib)   ...       0.00 
freq.    1485.23  E(vib)   ...       0.00 
freq.    1488.31  E(vib)   ...       0.00 
freq.    1491.25  E(vib)   ...       0.00 
freq.    1496.90  E(vib)   ...       0.00 
freq.    1500.93  E(vib)   ...       0.00 
freq.    1509.89  E(vib)   ...       0.00 
freq.    1534.34  E(vib)   ...       0.00 
freq.    1548.31  E(vib)   ...       0.00 
freq.    1550.40  E(vib)   ...       0.00 
freq.    1557.82  E(vib)   ...       0.00 
freq.    1582.45  E(vib)   ...       0.00 
freq.    1593.76  E(vib)   ...       0.00 
freq.    1606.25  E(vib)   ...       0.00 
freq.    1648.95  E(vib)   ...       0.00 
freq.    1651.48  E(vib)   ...       0.00 
freq.    1654.84  E(vib)   ...       0.00 
freq.    1670.90  E(vib)   ...       0.00 
freq.    3053.05  E(vib)   ...       0.00 
freq.    3057.06  E(vib)   ...       0.00 
freq.    3112.54  E(vib)   ...       0.00 
freq.    3117.39  E(vib)   ...       0.00 
freq.    3122.32  E(vib)   ...       0.00 
freq.    3123.50  E(vib)   ...       0.00 
freq.    3126.99  E(vib)   ...       0.00 
freq.    3139.23  E(vib)   ...       0.00 
freq.    3157.55  E(vib)   ...       0.00 
freq.    3173.93  E(vib)   ...       0.00 
freq.    3194.66  E(vib)   ...       0.00 
freq.    3197.59  E(vib)   ...       0.00 
freq.    3202.29  E(vib)   ...       0.00 
freq.    3204.10  E(vib)   ...       0.00 
freq.    3204.49  E(vib)   ...       0.00 
freq.    3208.75  E(vib)   ...       0.00 
freq.    3216.40  E(vib)   ...       0.00 
freq.    3218.78  E(vib)   ...       0.00 
freq.    3248.87  E(vib)   ...       0.00 
freq.    3256.58  E(vib)   ...       0.00 
freq.    3257.00  E(vib)   ...       0.00 
freq.    3258.28  E(vib)   ...       0.00 
freq.    3286.88  E(vib)   ...       0.00 

------------
INNER ENERGY
------------

The inner energy is: U= E(el) + E(ZPE) + E(vib) + E(rot) + E(trans)
    E(el)   - is the total energy from the electronic structure calculation
              = E(kin-el) + E(nuc-el) + E(el-el) + E(nuc-nuc)
    E(ZPE)  - the the zero temperature vibrational energy from the frequency calculation
    E(vib)  - the the finite temperature correction to E(ZPE) due to population
              of excited vibrational states
    E(rot)  - is the rotational thermal energy
    E(trans)- is the translational thermal energy

Summary of contributions to the inner energy U:
Electronic energy                ...   -999.06422608 Eh
Zero point energy                ...      0.40785724 Eh     255.93 kcal/mol
Thermal vibrational correction   ...      0.01796499 Eh      11.27 kcal/mol
Thermal rotational correction    ...      0.00141627 Eh       0.89 kcal/mol
Thermal translational correction ...      0.00141627 Eh       0.89 kcal/mol
-----------------------------------------------------------------------
Total thermal energy                   -998.63557130 Eh


Summary of corrections to the electronic energy:
(perhaps to be used in another calculation)
Total thermal correction                  0.02079754 Eh      13.05 kcal/mol
Non-thermal (ZPE) correction              0.40785724 Eh     255.93 kcal/mol
-----------------------------------------------------------------------
Total correction                          0.42865477 Eh     268.98 kcal/mol


--------
ENTHALPY
--------

The enthalpy is H = U + kB*T
                kB is Boltzmann's constant
Total free energy                 ...   -998.63557130 Eh 
Thermal Enthalpy correction       ...      0.00094421 Eh       0.59 kcal/mol
-----------------------------------------------------------------------
Total Enthalpy                    ...   -998.63462709 Eh


Note: Only C1 symmetry has been detected, increase convergence thresholds 
      if your molecule has a higher symmetry. Symmetry factor of 1.0 is   
      used for the rotational entropy correction. 
 

Note: Rotational entropy computed according to Herzberg 
Infrared and Raman Spectra, Chapter V,1, Van Nostrand Reinhold, 1945 
Point Group:  C1, Symmetry Number:   1  
Rotational constants in cm-1:     0.019341     0.003454     0.003080 

Vibrational entropy computed according to the QRRHO of S. Grimme
Chem.Eur.J. 2012 18 9955


-------
ENTROPY
-------

The entropy contributions are T*S = T*(S(el)+S(vib)+S(rot)+S(trans))
     S(el)   - electronic entropy
     S(vib)  - vibrational entropy
     S(rot)  - rotational entropy
     S(trans)- translational entropy
The entropies will be listed as multiplied by the temperature to get
units of energy

Electronic entropy                ...      0.00000000 Eh      0.00 kcal/mol
Vibrational entropy               ...      0.03103659 Eh     19.48 kcal/mol
Rotational entropy                ...      0.01677939 Eh     10.53 kcal/mol
Translational entropy             ...      0.02055118 Eh     12.90 kcal/mol
-----------------------------------------------------------------------
Final entropy term                ...      0.06836716 Eh     42.90 kcal/mol

In case the symmetry of your molecule has not been determined correctly
or in case you have a reason to use a different symmetry number we print 
out the resulting rotational entropy values for sn=1,12 :
 --------------------------------------------------------
|  sn= 1 | S(rot)=       0.01677939 Eh     10.53 kcal/mol|
|  sn= 2 | S(rot)=       0.01612493 Eh     10.12 kcal/mol|
|  sn= 3 | S(rot)=       0.01574210 Eh      9.88 kcal/mol|
|  sn= 4 | S(rot)=       0.01547047 Eh      9.71 kcal/mol|
|  sn= 5 | S(rot)=       0.01525978 Eh      9.58 kcal/mol|
|  sn= 6 | S(rot)=       0.01508764 Eh      9.47 kcal/mol|
|  sn= 7 | S(rot)=       0.01494209 Eh      9.38 kcal/mol|
|  sn= 8 | S(rot)=       0.01481602 Eh      9.30 kcal/mol|
|  sn= 9 | S(rot)=       0.01470481 Eh      9.23 kcal/mol|
|  sn=10 | S(rot)=       0.01460533 Eh      9.16 kcal/mol|
|  sn=11 | S(rot)=       0.01451534 Eh      9.11 kcal/mol|
|  sn=12 | S(rot)=       0.01443318 Eh      9.06 kcal/mol|
 --------------------------------------------------------


-------------------
GIBBS FREE ENERGY
-------------------

The Gibbs free energy is G = H - T*S

Total enthalpy                    ...   -998.63462709 Eh 
Total entropy correction          ...     -0.06836716 Eh    -42.90 kcal/mol
-----------------------------------------------------------------------
Final Gibbs free energy         ...   -998.70299425 Eh

For completeness - the Gibbs free energy minus the electronic energy
G-E(el)                           ...      0.36123183 Eh    226.68 kcal/mol



Timings for individual modules:

Sum of individual times         ...    44706.684 sec (= 745.111 min)
GTO integral calculation        ...       16.158 sec (=   0.269 min)   0.0 %
SCF iterations                  ...      373.446 sec (=   6.224 min)   0.8 %
Solution of CP-SCF eqns.        ...       50.356 sec (=   0.839 min)   0.1 %
SCF Gradient evaluation         ...       39.580 sec (=   0.660 min)   0.1 %
Geometry relaxation             ...        0.626 sec (=   0.010 min)   0.0 %
Numerical frequency calculation ...    44226.518 sec (= 737.109 min)  98.9 %
                             ****ORCA TERMINATED NORMALLY****
TOTAL RUN TIME: 0 days 12 hours 24 minutes 21 seconds 412 msec
