
    -----------------------------------------------------------------------
          Psi4: An Open-Source Ab Initio Electronic Structure Package
                               Psi4 1.9.1 release

                         Git: Rev {} zzzzzzz 


    D. G. A. Smith, L. A. Burns, A. C. Simmonett, R. M. Parrish,
    M. C. Schieber, R. Galvelis, P. Kraus, H. Kruse, R. Di Remigio,
    A. Alenaizan, A. M. James, S. Lehtola, J. P. Misiewicz, M. Scheurer,
    R. A. Shaw, J. B. Schriber, Y. Xie, Z. L. Glick, D. A. Sirianni,
    J. S. O'Brien, J. M. Waldrop, A. Kumar, E. G. Hohenstein,
    B. P. Pritchard, B. R. Brooks, H. F. Schaefer III, A. Yu. Sokolov,
    K. Patkowski, A. E. DePrince III, U. Bozkaya, R. A. King,
    F. A. Evangelista, J. M. Turney, T. D. Crawford, C. D. Sherrill,
    J. Chem. Phys. 152(18) 184108 (2020). https://doi.org/10.1063/5.0006002

                            Additional Code Authors
    E. T. Seidl, C. L. Janssen, E. F. Valeev, M. L. Leininger,
    J. F. Gonthier, R. M. Richard, H. R. McAlexander, M. Saitow, X. Wang,
    P. Verma, M. H. Lechner, A. Jiang, S. Behnle, A. G. Heide,
    M. F. Herbst, and D. L. Poole

             Previous Authors, Complete List of Code Contributors,
                       and Citations for Specific Modules
    https://github.com/psi4/psi4/blob/master/codemeta.json
    https://github.com/psi4/psi4/graphs/contributors
    http://psicode.org/psi4manual/master/introduction.html#citing-psifour

    -----------------------------------------------------------------------


    Psi4 started on: Tuesday, 14 May 2024 03:58PM

    Process ID: 3765466
    Host:       cn0050
    PSIDATADIR: /panfs/jay/groups/28/lever046/lever046/psi4conda/share/psi4
    Memory:     500.0 MiB
    Threads:    16
    
  ==> Input File <==

--------------------------------------------------------------------------
# Any line starting with the # character is a comment line
#! B3LYP/6-31+G* DYE 01 computation

memory 600mb

molecule dy01 {
   1 1
 N      -2.15030     0.41850    -0.43230
 N       2.41730     0.91950     0.04830
 C      -1.35370     0.61410     0.62080
 C       1.11090     0.41950     0.23640
 C      -3.39870    -0.07280    -0.31760
 C       3.52950     0.02910    -0.10420
 C      -0.00370     1.15310     0.42610
 C      -1.62290     0.76080    -1.76630
 C       2.73860     2.35020    -0.00240
 C      -3.89190    -0.39650     0.96580
 C       3.30710    -1.36920    -0.09530
 C      -1.77690     0.31750     1.90070
 C       0.92990    -1.03210     0.22830
 C      -3.05880    -0.19280     2.07420
 C       1.94850    -1.88410     0.07200
 C      -4.19640    -0.26050    -1.45070
 C       4.85940     0.46650    -0.26370
 C      -5.19380    -0.90860     1.08190
 C       4.36950    -2.27380    -0.24350
 C      -1.92930     2.20150    -2.12840
 C       3.25240     2.85100     1.33160
 C      -5.48700    -0.77010    -1.31620
 C       5.91470    -0.44000    -0.41040
 C      -5.98450    -1.09320    -0.05410
 C       5.67040    -1.80760    -0.40100
 H       0.03090     2.23730     0.46080
 H      -0.54470     0.59450    -1.81410
 H      -1.98110     0.05600    -2.52000
 H       3.43900     2.58420    -0.81320
 H       1.85560     2.93980    -0.27310
 H      -1.13830     0.47310     2.76520
 H      -0.05250    -1.47810     0.34330
 H      -3.40330    -0.43010     3.07800
 H       1.78270    -2.95580     0.06750
 H      -3.90220    -0.00530    -2.46100
 H       5.13300     1.51650    -0.28240
 H      -5.60210    -1.16700     2.05640
 H       4.19200    -3.34680    -0.23650
 H      -1.49340     2.90100    -1.40920
 H      -1.52330     2.43690    -3.11710
 H      -3.00750     2.38620    -2.15340
 H       3.48220     3.91960     1.26920
 H       2.49540     2.71790     2.11240
 H       4.15620     2.33440     1.66530
 H      -6.11060    -0.90920    -2.19480
 H       6.92960    -0.07180    -0.53250
 H      -6.99150    -1.48830     0.04600
 H       6.49110    -2.50920    -0.51520
}

set {
 basis 6-31+G*
 tdscf_states 10
 ddx true
 ddx_model pcm
 ddx_solvent methanol
}

energy('td-scf')


--------------------------------------------------------------------------

  Memory set to 572.205 MiB by Python driver.

Scratch directory: /scratch.global/lever046/psi4/
  PCM or DDX continuum solvation does not make use of molecular symmetry: further calculations in C1 point group.
   => Libint2 <=

    Primary   basis highest AM E, G, H:  5, 4, 3
    Auxiliary basis highest AM E, G, H:  6, 5, 4
    Onebody   basis highest AM E, G, H:  6, 5, 4
    Solid Harmonics ordering:            Gaussian

*** tstart() called on cn0050
*** at Tue May 14 15:59:02 2024

   => Loading Basis Set <=

    Name: 6-31+G*
    Role: ORBITAL
    Keyword: BASIS
    atoms 1-2   entry N          line   138 file /panfs/jay/groups/28/lever046/lever046/psi4conda/share/psi4/basis/6-31pgs.gbs 
    atoms 3-25  entry C          line   119 file /panfs/jay/groups/28/lever046/lever046/psi4conda/share/psi4/basis/6-31pgs.gbs 
    atoms 26-48 entry H          line    46 file /panfs/jay/groups/28/lever046/lever046/psi4conda/share/psi4/basis/6-31pgs.gbs 


         ---------------------------------------------------------
                                   SCF
               by Justin Turney, Rob Parrish, Andy Simmonett
                          and Daniel G. A. Smith
                              RHF Reference
                       16 Threads,    572 MiB Core
         ---------------------------------------------------------

  ==> Geometry <==

    Molecular point group: c1
    Full point group: C1

    Geometry (in Angstrom), charge = 1, multiplicity = 1:

       Center              X                  Y                   Z               Mass       
    ------------   -----------------  -----------------  -----------------  -----------------
         N           -2.164997374481     0.371078761943    -0.416215981885    14.003074004430
         N            2.402602625519     0.872078761943     0.064384018115    14.003074004430
         C           -1.368397374481     0.566678761943     0.636884018115    12.000000000000
         C            1.096202625519     0.372078761943     0.252484018115    12.000000000000
         C           -3.413397374481    -0.120221238057    -0.301515981885    12.000000000000
         C            3.514802625519    -0.018321238057    -0.088115981885    12.000000000000
         C           -0.018397374481     1.105678761943     0.442184018115    12.000000000000
         C           -1.637597374481     0.713378761943    -1.750215981885    12.000000000000
         C            2.723902625519     2.302778761943     0.013684018115    12.000000000000
         C           -3.906597374481    -0.443921238057     0.981884018115    12.000000000000
         C            3.292402625519    -1.416621238057    -0.079215981885    12.000000000000
         C           -1.791597374481     0.270078761943     1.916784018115    12.000000000000
         C            0.915202625519    -1.079521238057     0.244384018115    12.000000000000
         C           -3.073497374481    -0.240221238057     2.090284018115    12.000000000000
         C            1.933802625519    -1.931521238057     0.088084018115    12.000000000000
         C           -4.211097374481    -0.307921238057    -1.434615981885    12.000000000000
         C            4.844702625519     0.419078761943    -0.247615981885    12.000000000000
         C           -5.208497374481    -0.956021238057     1.097984018115    12.000000000000
         C            4.354802625519    -2.321221238057    -0.227415981885    12.000000000000
         C           -1.943997374481     2.154078761943    -2.112315981885    12.000000000000
         C            3.237702625519     2.803578761943     1.347684018115    12.000000000000
         C           -5.501697374481    -0.817521238057    -1.300115981885    12.000000000000
         C            5.900002625519    -0.487421238057    -0.394315981885    12.000000000000
         C           -5.999197374481    -1.140621238057    -0.038015981885    12.000000000000
         C            5.655702625519    -1.855021238057    -0.384915981885    12.000000000000
         H            0.016202625519     2.189878761943     0.476884018115     1.007825032230
         H           -0.559397374481     0.547078761943    -1.798015981885     1.007825032230
         H           -1.995797374481     0.008578761943    -2.503915981885     1.007825032230
         H            3.424302625519     2.536778761943    -0.797115981885     1.007825032230
         H            1.840902625519     2.892378761943    -0.257015981885     1.007825032230
         H           -1.152997374481     0.425678761943     2.781284018115     1.007825032230
         H           -0.067197374481    -1.525521238057     0.359384018115     1.007825032230
         H           -3.417997374481    -0.477521238057     3.094084018115     1.007825032230
         H            1.768002625519    -3.003221238057     0.083584018115     1.007825032230
         H           -3.916897374481    -0.052721238057    -2.444915981885     1.007825032230
         H            5.118302625519     1.469078761943    -0.266315981885     1.007825032230
         H           -5.616797374481    -1.214421238057     2.072484018115     1.007825032230
         H            4.177302625519    -3.394221238057    -0.220415981885     1.007825032230
         H           -1.508097374481     2.853578761943    -1.393115981885     1.007825032230
         H           -1.537997374481     2.389478761943    -3.101015981885     1.007825032230
         H           -3.022197374481     2.338778761943    -2.137315981885     1.007825032230
         H            3.467502625519     3.872178761943     1.285284018115     1.007825032230
         H            2.480702625519     2.670478761943     2.128484018115     1.007825032230
         H            4.141502625519     2.286978761943     1.681384018115     1.007825032230
         H           -6.125297374481    -0.956621238057    -2.178715981885     1.007825032230
         H            6.914902625519    -0.119221238057    -0.516415981885     1.007825032230
         H           -7.006197374481    -1.535721238057     0.062084018115     1.007825032230
         H            6.476402625519    -2.556621238057    -0.499115981885     1.007825032230

  Running in c1 symmetry.

  Rotational constants: A =      0.01763  B =      0.00363  C =      0.00346 [cm^-1]
  Rotational constants: A =    528.48534  B =    108.71117  C =    103.71398 [MHz]
  Nuclear repulsion = 2059.720130380061164

  Charge       = 1
  Multiplicity = 1
  Electrons    = 174
  Nalpha       = 87
  Nbeta        = 87

  ==> Algorithm <==

  SCF Algorithm Type is DF.
  DIIS enabled.
  MOM disabled.
  Fractional occupation disabled.
  Guess Type is SAD.
  Energy threshold   = 1.00e-06
  Density threshold  = 1.00e-06
  Integral threshold = 1.00e-12

  ==> Primary Basis <==

  Basis Set: 6-31+G*
    Blend: 6-31+G*
    Number of shells: 246
    Number of basis functions: 521
    Number of Cartesian functions: 521
    Spherical Harmonics?: false
    Max angular momentum: 2

   => Loading Basis Set <=

    Name: (6-31+G* AUX)
    Role: JKFIT
    Keyword: DF_BASIS_SCF
    atoms 1-2   entry N          line   252 file /panfs/jay/groups/28/lever046/lever046/psi4conda/share/psi4/basis/heavy-aug-cc-pvdz-jkfit.gbs 
    atoms 3-25  entry C          line   194 file /panfs/jay/groups/28/lever046/lever046/psi4conda/share/psi4/basis/heavy-aug-cc-pvdz-jkfit.gbs 
    atoms 26-48 entry H          line   116 file /panfs/jay/groups/28/lever046/lever046/psi4conda/share/psi4/basis/heavy-aug-cc-pvdz-jkfit.gbs 

  +----------------------------------------------------------------+
  |                                                                |
  |                        888      888 Y8b    d8Y                 |
  |                        888      888  Y8b  d8Y                  |
  |                        888      888   Y8888Y                   |
  |                    .d88888  .d88888    Y88Y                    |
  |                   d88  888 d88  888    d88b                    |
  |                   888  888 888  888   d8888b                   |
  |                   Y88b 888 Y88b 888  d8Y  Y8b                  |
  |                     Y88888   Y88888 d8Y    Y8b                 |
  |                                                                |
  |                 https://ddsolvation.github.io/ddX/             |
  |                         Version: 0.6.0                         |
  |                                                                |
  +----------------------------------------------------------------+
    enable_fmm              = True
    eta                     = 0.1
    fmm_local_lmax          = 6
    fmm_multipole_lmax      = 9
    incore                  = False
    jacobi_n_diis           = 20
    lmax                    = 9
    logfile                 = 
    maxiter                 = 100
    n_lebedev               = 302
    n_proc                  = 16
    shift                   = 0.0
    solvent_kappa           = 0.0
    solvent_epsilon         = 32.613
    solvent_epsilon_optical = 1.758
    tol                     = 1e-08

    DDX numerical integration setup:

    dft_block_scheme     = ATOMIC
    dft_nuclear_scheme   = BECKE
    dft_pruning_scheme   = ROBUST
    dft_radial_points    = 35
    dft_radial_scheme    = BECKE
    dft_spherical_points = 110

    Cavity sphere setup (in Angstrom):

    Charge       X            Y            Z          Radius  
    ------   ----------   ----------   ----------   ----------
      7.00    -2.164997     0.371079    -0.416216     2.013000
      7.00     2.402603     0.872079     0.064384     2.013000
      6.00    -1.368397     0.566679     0.636884     2.118050
      6.00     1.096203     0.372079     0.252484     2.118050
      6.00    -3.413397    -0.120221    -0.301516     2.118050
      6.00     3.514803    -0.018321    -0.088116     2.118050
      6.00    -0.018397     1.105679     0.442184     2.118050
      6.00    -1.637597     0.713379    -1.750216     2.118050
      6.00     2.723903     2.302779     0.013684     2.118050
      6.00    -3.906597    -0.443921     0.981884     2.118050
      6.00     3.292403    -1.416621    -0.079216     2.118050
      6.00    -1.791597     0.270079     1.916784     2.118050
      6.00     0.915203    -1.079521     0.244384     2.118050
      6.00    -3.073497    -0.240221     2.090284     2.118050
      6.00     1.933803    -1.931521     0.088084     2.118050
      6.00    -4.211097    -0.307921    -1.434616     2.118050
      6.00     4.844703     0.419079    -0.247616     2.118050
      6.00    -5.208497    -0.956021     1.097984     2.118050
      6.00     4.354803    -2.321221    -0.227416     2.118050
      6.00    -1.943997     2.154079    -2.112316     2.118050
      6.00     3.237703     2.803579     1.347684     2.118050
      6.00    -5.501697    -0.817521    -1.300116     2.118050
      6.00     5.900003    -0.487421    -0.394316     2.118050
      6.00    -5.999197    -1.140621    -0.038016     2.118050
      6.00     5.655703    -1.855021    -0.384916     2.118050
      1.00     0.016203     2.189879     0.476884     1.587300
      1.00    -0.559397     0.547079    -1.798016     1.587300
      1.00    -1.995797     0.008579    -2.503916     1.587300
      1.00     3.424303     2.536779    -0.797116     1.587300
      1.00     1.840903     2.892379    -0.257016     1.587300
      1.00    -1.152997     0.425679     2.781284     1.587300
      1.00    -0.067197    -1.525521     0.359384     1.587300
      1.00    -3.417997    -0.477521     3.094084     1.587300
      1.00     1.768003    -3.003221     0.083584     1.587300
      1.00    -3.916897    -0.052721    -2.444916     1.587300
      1.00     5.118303     1.469079    -0.266316     1.587300
      1.00    -5.616797    -1.214421     2.072484     1.587300
      1.00     4.177303    -3.394221    -0.220416     1.587300
      1.00    -1.508097     2.853579    -1.393116     1.587300
      1.00    -1.537997     2.389479    -3.101016     1.587300
      1.00    -3.022197     2.338779    -2.137316     1.587300
      1.00     3.467503     3.872179     1.285284     1.587300
      1.00     2.480703     2.670479     2.128484     1.587300
      1.00     4.141503     2.286979     1.681384     1.587300
      1.00    -6.125297    -0.956621    -2.178716     1.587300
      1.00     6.914903    -0.119221    -0.516416     1.587300
      1.00    -7.006197    -1.535721     0.062084     1.587300
      1.00     6.476403    -2.556621    -0.499116     1.587300

    Cavity sphere setup (in Bohr):

    Charge       X            Y            Z          Radius  
    ------   ----------   ----------   ----------   ----------
      7.00    -4.091252     0.701237    -0.786534     3.804019
      7.00     4.540261     1.647990     0.121668     3.804019
      6.00    -2.585896     1.070868     1.203536     4.002534
      6.00     2.071523     0.703127     0.477126     4.002534
      6.00    -6.450386    -0.227185    -0.569783     4.002534
      6.00     6.642014    -0.034622    -0.166515     4.002534
      6.00    -0.034766     2.089430     0.835607     4.002534
      6.00    -3.094611     1.348090    -3.307429     4.002534
      6.00     5.147430     4.351621     0.025859     4.002534
      6.00    -7.382399    -0.838890     1.855492     4.002534
      6.00     6.221739    -2.677026    -0.149697     4.002534
      6.00    -3.385628     0.510375     3.622197     4.002534
      6.00     1.729482    -2.039999     0.461819     4.002534
      6.00    -5.808068    -0.453952     3.950064     4.002534
      6.00     3.654357    -3.650046     0.166455     4.002534
      6.00    -7.957821    -0.581887    -2.711031     4.002534
      6.00     9.155161     0.791944    -0.467926     4.002534
      6.00    -9.842634    -1.806618     2.074889     4.002534
      6.00     8.229384    -4.386472    -0.429754     4.002534
      6.00    -3.673623     4.070619    -3.991699     4.002534
      6.00     6.118371     5.297996     2.546754     4.002534
      6.00   -10.396701    -1.544891    -2.456863     4.002534
      6.00    11.149389    -0.921093    -0.745149     4.002534
      6.00   -11.336840    -2.155462    -0.071840     4.002534
      6.00    10.687729    -3.505482    -0.727386     4.002534
      1.00     0.030619     4.138271     0.901180     2.999562
      1.00    -1.057108     1.033829    -3.397758     2.999562
      1.00    -3.771510     0.016212    -4.731715     2.999562
      1.00     6.470994     4.793817    -1.506331     2.999562
      1.00     3.478802     5.465804    -0.485690     2.999562
      1.00    -2.178849     0.804416     5.255865     2.999562
      1.00    -0.126985    -2.882817     0.679137     2.999562
      1.00    -6.459079    -0.902384     5.846971     2.999562
      1.00     3.341041    -5.675266     0.157951     2.999562
      1.00    -7.401863    -0.099629    -4.620222     2.999562
      1.00     9.672190     2.776157    -0.503264     2.999562
      1.00   -10.614209    -2.294924     3.916427     2.999562
      1.00     7.893958    -6.414149    -0.416526     2.999562
      1.00    -2.849891     5.392482    -2.632608     2.999562
      1.00    -2.906394     4.515460    -5.860071     2.999562
      1.00    -5.711125     4.419651    -4.038942     2.999562
      1.00     6.552630     7.317357     2.428835     2.999562
      1.00     4.687849     5.046473     4.022252     2.999562
      1.00     7.826306     4.321764     3.177355     2.999562
      1.00   -11.575134    -1.807752    -4.117177     2.999562
      1.00    13.067272    -0.225295    -0.975885     2.999562
      1.00   -13.239794    -2.902093     0.117322     2.999562
      1.00    12.238627    -4.831314    -0.943193     2.999562

  ==> Integral Setup <==

  ==> DiskDFJK: Density-Fitted J/K Matrices <==

    J tasked:                  Yes
    K tasked:                  Yes
    wK tasked:                  No
    OpenMP threads:             16
    Integrals threads:          16
    Memory [MiB]:              429
    Algorithm:                Disk
    Integral Cache:           NONE
    Schwarz Cutoff:          1E-12
    Fitting Condition:       1E-10

   => Auxiliary Basis Set <=

  Basis Set: (6-31+G* AUX)
    Blend: HEAVY-AUG-CC-PVDZ-JKFIT
    Number of shells: 907
    Number of basis functions: 3100
    Number of Cartesian functions: 3100
    Spherical Harmonics?: false
    Max angular momentum: 3

  Minimum eigenvalue in the overlap matrix is 1.3877451694E-07.
  Reciprocal condition number of the overlap matrix is 7.7512541709E-09.
    Using symmetric orthogonalization.

  ==> Pre-Iterations <==

  SCF Guess: Superposition of Atomic Densities via on-the-fly atomic UHF (no occupation information).

   -------------------------
    Irrep   Nso     Nmo    
   -------------------------
     A        521     521 
   -------------------------
    Total     521     521
   -------------------------

  ==> Iterations <==

                           Total Energy        Delta E     RMS |[F,P]|

   @DF-RHF iter SAD:  -993.47367448713430   -9.93474e+02   0.00000e+00 
   @DF-RHF iter   1:  -992.59376525826224    8.79909e-01   1.70040e-03 DIIS/ADIIS
   @DF-RHF iter   2:  -993.06534696961603   -4.71582e-01   6.14847e-04 DIIS/ADIIS
   @DF-RHF iter   3:  -993.12037766209698   -5.50307e-02   1.60594e-04 DIIS/ADIIS
   @DF-RHF iter   4:  -993.12589671314663   -5.51905e-03   6.36986e-05 DIIS
   @DF-RHF iter   5:  -993.12654716167822   -6.50449e-04   1.35479e-05 DIIS
   @DF-RHF iter   6:  -993.12663918821443   -9.20265e-05   7.64545e-06 DIIS
   @DF-RHF iter   7:  -993.12666215894319   -2.29707e-05   3.27518e-06 DIIS
   @DF-RHF iter   8:  -993.12667086088140   -8.70194e-06   1.51348e-06 DIIS
   @DF-RHF iter   9:  -993.12667222290827   -1.36203e-06   6.78293e-07 DIIS
   @DF-RHF iter  10:  -993.12667264673701   -4.23829e-07   3.08674e-07 DIIS
  Energy and wave function converged.


  ==> Post-Iterations <==

    Orbital Energies [Eh]
    ---------------------

    Doubly Occupied:                                                      

       1A    -15.694171     2A    -15.630834     3A    -11.358791  
       4A    -11.336850     5A    -11.329033     6A    -11.315294  
       7A    -11.312427     8A    -11.294707     9A    -11.288769  
      10A    -11.280705    11A    -11.280168    12A    -11.279704  
      13A    -11.274982    14A    -11.270348    15A    -11.269376  
      16A    -11.265930    17A    -11.262601    18A    -11.258293  
      19A    -11.257390    20A    -11.257260    21A    -11.252914  
      22A    -11.243331    23A    -11.238027    24A    -11.237934  
      25A    -11.225211    26A     -1.385119    27A     -1.299462  
      28A     -1.199171    29A     -1.168765    30A     -1.161443  
      31A     -1.130039    32A     -1.096499    33A     -1.066136  
      34A     -1.056983    35A     -1.040581    36A     -1.039690  
      37A     -1.018282    38A     -0.991448    39A     -0.932956  
      40A     -0.916779    41A     -0.903467    42A     -0.886255  
      43A     -0.868366    44A     -0.846040    45A     -0.835271  
      46A     -0.816270    47A     -0.779717    48A     -0.754436  
      49A     -0.752319    50A     -0.732398    51A     -0.725664  
      52A     -0.696495    53A     -0.688724    54A     -0.670327  
      55A     -0.660046    56A     -0.656639    57A     -0.651001  
      58A     -0.648438    59A     -0.634404    60A     -0.631729  
      61A     -0.621334    62A     -0.620205    63A     -0.610562  
      64A     -0.603780    65A     -0.595281    66A     -0.583816  
      67A     -0.573889    68A     -0.560376    69A     -0.555396  
      70A     -0.551654    71A     -0.540581    72A     -0.538104  
      73A     -0.534242    74A     -0.525900    75A     -0.517411  
      76A     -0.513680    77A     -0.502125    78A     -0.500960  
      79A     -0.491882    80A     -0.487611    81A     -0.451288  
      82A     -0.430731    83A     -0.386532    84A     -0.365541  
      85A     -0.343848    86A     -0.333867    87A     -0.281467  

    Virtual:                                                              

      88A     -0.060117    89A     -0.044368    90A      0.014436  
      91A      0.017822    92A      0.063366    93A      0.065473  
      94A      0.073162    95A      0.076131    96A      0.078211  
      97A      0.083824    98A      0.084090    99A      0.089363  
     100A      0.092401   101A      0.098051   102A      0.100291  
     103A      0.104005   104A      0.105743   105A      0.109243  
     106A      0.112340   107A      0.115908   108A      0.119793  
     109A      0.122634   110A      0.124975   111A      0.130137  
     112A      0.132831   113A      0.134479   114A      0.136462  
     115A      0.143156   116A      0.147812   117A      0.151541  
     118A      0.152342   119A      0.156365   120A      0.160905  
     121A      0.167092   122A      0.171918   123A      0.175905  
     124A      0.179811   125A      0.186350   126A      0.189145  
     127A      0.193107   128A      0.195623   129A      0.199301  
     130A      0.199891   131A      0.202189   132A      0.207139  
     133A      0.210937   134A      0.213869   135A      0.217941  
     136A      0.220576   137A      0.228349   138A      0.230081  
     139A      0.233388   140A      0.236100   141A      0.242057  
     142A      0.243846   143A      0.247403   144A      0.249722  
     145A      0.253297   146A      0.257051   147A      0.259705  
     148A      0.261762   149A      0.266530   150A      0.271815  
     151A      0.276098   152A      0.279379   153A      0.280468  
     154A      0.283661   155A      0.285862   156A      0.291660  
     157A      0.292043   158A      0.298424   159A      0.300575  
     160A      0.305423   161A      0.309192   162A      0.309515  
     163A      0.316011   164A      0.319560   165A      0.322325  
     166A      0.329215   167A      0.330932   168A      0.332624  
     169A      0.333189   170A      0.339159   171A      0.342128  
     172A      0.350988   173A      0.357171   174A      0.357929  
     175A      0.360953   176A      0.363142   177A      0.367709  
     178A      0.368388   179A      0.376612   180A      0.377300  
     181A      0.380834   182A      0.383148   183A      0.386907  
     184A      0.391255   185A      0.394201   186A      0.396670  
     187A      0.399784   188A      0.400192   189A      0.406850  
     190A      0.408188   191A      0.412143   192A      0.415790  
     193A      0.418302   194A      0.423145   195A      0.425453  
     196A      0.427089   197A      0.433899   198A      0.437417  
     199A      0.439878   200A      0.441367   201A      0.447093  
     202A      0.451369   203A      0.453598   204A      0.457617  
     205A      0.458870   206A      0.465686   207A      0.467447  
     208A      0.474656   209A      0.475682   210A      0.480297  
     211A      0.481567   212A      0.486008   213A      0.493556  
     214A      0.503033   215A      0.510975   216A      0.519583  
     217A      0.522224   218A      0.526667   219A      0.529835  
     220A      0.532786   221A      0.538215   222A      0.541870  
     223A      0.548922   224A      0.554328   225A      0.555935  
     226A      0.573276   227A      0.578068   228A      0.587784  
     229A      0.600406   230A      0.610114   231A      0.620014  
     232A      0.622662   233A      0.632731   234A      0.640536  
     235A      0.647058   236A      0.668710   237A      0.681823  
     238A      0.690304   239A      0.723433   240A      0.735898  
     241A      0.741130   242A      0.759934   243A      0.777441  
     244A      0.807182   245A      0.812203   246A      0.824423  
     247A      0.838731   248A      0.856729   249A      0.874381  
     250A      0.881679   251A      0.887096   252A      0.893560  
     253A      0.897215   254A      0.899609   255A      0.905226  
     256A      0.912154   257A      0.924786   258A      0.931275  
     259A      0.933858   260A      0.941249   261A      0.952623  
     262A      0.957870   263A      0.961593   264A      0.967156  
     265A      0.969354   266A      0.971835   267A      0.975566  
     268A      0.980660   269A      0.986183   270A      0.988570  
     271A      0.996346   272A      1.001029   273A      1.003111  
     274A      1.015533   275A      1.019980   276A      1.022830  
     277A      1.031728   278A      1.033836   279A      1.044273  
     280A      1.049314   281A      1.051714   282A      1.066368  
     283A      1.068121   284A      1.071705   285A      1.078695  
     286A      1.087295   287A      1.090032   288A      1.097422  
     289A      1.109211   290A      1.116068   291A      1.129858  
     292A      1.133624   293A      1.141189   294A      1.150933  
     295A      1.153788   296A      1.155918   297A      1.169948  
     298A      1.174100   299A      1.178214   300A      1.184690  
     301A      1.192401   302A      1.192644   303A      1.203895  
     304A      1.204686   305A      1.213204   306A      1.219448  
     307A      1.225854   308A      1.245460   309A      1.248359  
     310A      1.253246   311A      1.260030   312A      1.268120  
     313A      1.274389   314A      1.280588   315A      1.285746  
     316A      1.286494   317A      1.300148   318A      1.307859  
     319A      1.313844   320A      1.322670   321A      1.325633  
     322A      1.326831   323A      1.345089   324A      1.361740  
     325A      1.368230   326A      1.379203   327A      1.386937  
     328A      1.395285   329A      1.407275   330A      1.413182  
     331A      1.418338   332A      1.426789   333A      1.432502  
     334A      1.436355   335A      1.442683   336A      1.450002  
     337A      1.452078   338A      1.460120   339A      1.466802  
     340A      1.477142   341A      1.479814   342A      1.491759  
     343A      1.497062   344A      1.504597   345A      1.511742  
     346A      1.517218   347A      1.533638   348A      1.545188  
     349A      1.554729   350A      1.563562   351A      1.567216  
     352A      1.588712   353A      1.605011   354A      1.609657  
     355A      1.621563   356A      1.627539   357A      1.633060  
     358A      1.640856   359A      1.646068   360A      1.664647  
     361A      1.668847   362A      1.691064   363A      1.693355  
     364A      1.702479   365A      1.709289   366A      1.719938  
     367A      1.721322   368A      1.723262   369A      1.731886  
     370A      1.735554   371A      1.746897   372A      1.750655  
     373A      1.759252   374A      1.769451   375A      1.774241  
     376A      1.784690   377A      1.832530   378A      1.871786  
     379A      1.877810   380A      1.899093   381A      1.904967  
     382A      1.927569   383A      1.945198   384A      1.984847  
     385A      2.004454   386A      2.014360   387A      2.052590  
     388A      2.065336   389A      2.083527   390A      2.103343  
     391A      2.109437   392A      2.119719   393A      2.128849  
     394A      2.132175   395A      2.140964   396A      2.149884  
     397A      2.156777   398A      2.171779   399A      2.182833  
     400A      2.191020   401A      2.204562   402A      2.211540  
     403A      2.224658   404A      2.243454   405A      2.244178  
     406A      2.264076   407A      2.272400   408A      2.278845  
     409A      2.287795   410A      2.299556   411A      2.306813  
     412A      2.312956   413A      2.322403   414A      2.330362  
     415A      2.335452   416A      2.340830   417A      2.343624  
     418A      2.363989   419A      2.385280   420A      2.396302  
     421A      2.413852   422A      2.431172   423A      2.442113  
     424A      2.463561   425A      2.469946   426A      2.478413  
     427A      2.486703   428A      2.487973   429A      2.499601  
     430A      2.515799   431A      2.528814   432A      2.542691  
     433A      2.553221   434A      2.566454   435A      2.572585  
     436A      2.579461   437A      2.589214   438A      2.600956  
     439A      2.605744   440A      2.618812   441A      2.629059  
     442A      2.631838   443A      2.638822   444A      2.642411  
     445A      2.662267   446A      2.675118   447A      2.695111  
     448A      2.699707   449A      2.705328   450A      2.711934  
     451A      2.732460   452A      2.736239   453A      2.754443  
     454A      2.771715   455A      2.796760   456A      2.803857  
     457A      2.844914   458A      2.860389   459A      2.902651  
     460A      2.904032   461A      2.906166   462A      2.926356  
     463A      2.954659   464A      2.965632   465A      2.980992  
     466A      2.989777   467A      2.995192   468A      3.004817  
     469A      3.014926   470A      3.015788   471A      3.027012  
     472A      3.052256   473A      3.057736   474A      3.073186  
     475A      3.097084   476A      3.112059   477A      3.129696  
     478A      3.144420   479A      3.160205   480A      3.194393  
     481A      3.198569   482A      3.227427   483A      3.241368  
     484A      3.248212   485A      3.296185   486A      3.312250  
     487A      3.329317   488A      3.372208   489A      3.413148  
     490A      3.464802   491A      3.505851   492A      3.576613  
     493A      3.737309   494A      3.779793   495A      3.845780  
     496A      3.891009   497A      4.658380   498A      4.678126  
     499A      4.707107   500A      4.717187   501A      4.729906  
     502A      4.739052   503A      4.766904   504A      4.781553  
     505A      4.790736   506A      4.800340   507A      4.814984  
     508A      4.830774   509A      4.872157   510A      4.892124  
     511A      4.901952   512A      4.914451   513A      4.919332  
     514A      4.932385   515A      4.968936   516A      5.012508  
     517A      5.054062   518A      5.070740   519A      5.119611  
     520A      5.234705   521A      5.265231  

    Final Occupation by Irrep:
              A 
    DOCC [    87 ]
    NA   [    87 ]
    NB   [    87 ]

  @DF-RHF Final Energy:  -993.12667264673701

   => Energetics <=

    Nuclear Repulsion Energy =           2059.7201303800611640
    One-Electron Energy =               -5417.0531771488222148
    Two-Electron Energy =                2364.2696686307440359
    DD Solvation Energy =                 -0.0632945087200902
    Total Energy =                       -993.1266726467371200

Computation Completed


Properties will be evaluated at   0.000000,   0.000000,   0.000000 [a0]

Properties computed using the SCF density matrix


 Multipole Moments:

 ------------------------------------------------------------------------------------
     Multipole            Electronic (a.u.)      Nuclear  (a.u.)        Total (a.u.)
 ------------------------------------------------------------------------------------

 L = 1.  Multiply by 2.5417464519 to convert [e a0] to [Debye]
 Dipole X            :         -7.0619894            3.6546537           -3.4073356
 Dipole Y            :        -10.6331948           10.9133259            0.2801311
 Dipole Z            :          3.8197629           -3.8317917           -0.0120287
 Magnitude           :                                                    3.4188528

 ------------------------------------------------------------------------------------

*** tstop() called on cn0050 at Tue May 14 16:01:57 2024
Module time:
	user time   =    2578.51 seconds =      42.98 minutes
	system time =      64.63 seconds =       1.08 minutes
	total time  =        175 seconds =       2.92 minutes
Total time:
	user time   =    2578.51 seconds =      42.98 minutes
	system time =      64.63 seconds =       1.08 minutes
	total time  =        175 seconds =       2.92 minutes

******************************************************************************************
**********                               WARNING                                **********
**********       The names of excited state variables changed between 1.5       **********
**********     and 1.6. For a quick solution, remove the symmetry specifier     **********
**********   from the variable name. For full details, see 'Notes on Psivars'   **********
**********                        in the documentation.                         **********
******************************************************************************************



         ---------------------------------------------------------
                         TDSCF excitation energies                
                 by Andrew M. James and Daniel G. A. Smith        
         ---------------------------------------------------------

  ==> Options <==

     Residual threshold  : 1.0000e-04
     Initial guess       : denominators
     Reference           : RHF
     Solver type         : RPA (Hamiltonian)


  ==> Requested Excitations <==

      10 singlet states with A symmetry


  ==> Seeking the lowest 10 singlet states with A symmetry

                        Generalized Hamiltonian Solver                       
                              By Andrew M. James                             

  ==> Options <==

    Max number of iterations        = 60   
    Eigenvector tolerance           = 1.0000e-04
    Max number of expansion vectors = 2000 

  => Iterations <=
                              Max[D[value]]     Max[|R|]   # vectors
  HamiltonianSolver iter   1:   2.27823e-01  3.28374e-01     40      
  HamiltonianSolver iter   2:   2.97119e-02  1.25693e-01     60      
  HamiltonianSolver iter   3:   1.63387e-02  9.73540e-02     80      
  HamiltonianSolver iter   4:   9.18370e-03  5.28829e-02    100      
  HamiltonianSolver iter   5:   1.09133e-03  2.29467e-02    120      
  HamiltonianSolver iter   6:   1.99440e-04  1.21238e-02    140      
  HamiltonianSolver iter   7:   6.64854e-05  5.53831e-03    160      
  HamiltonianSolver iter   8:   9.74518e-06  1.89126e-03    176      
  HamiltonianSolver iter   9:   1.04977e-06  6.22625e-04    188      
  HamiltonianSolver iter  10:   1.06653e-07  2.08475e-04    198      
  HamiltonianSolver iter  11:   1.06517e-08  7.38195e-05    200      Converged

******************************************************************************************
**********                               WARNING                                **********
**********  Length-gauge rotatory strengths are **NOT** gauge-origin invariant  **********
******************************************************************************************

                                    Excitation Energy         Total Energy        Oscillator Strength             Rotatory Strength       
     #   Sym: GS->ES (Trans)        au              eV              au          au (length)    au (velocity)    au (length)    au (velocity) 
    ---- -------------------- --------------- --------------- --------------- --------------- --------------- --------------- ---------------
     1        A->A (1 A)       0.13210         3.59460        -992.99457       0.0040          0.0038         -0.0013          0.0009        
     2        A->A (1 A)       0.14811         4.03024        -992.97856       0.0035          0.0029         -0.0018         -0.0016        
     3        A->A (1 A)       0.15691         4.26967        -992.96977       0.2279          0.2151         -0.0382         -0.0281        
     4        A->A (1 A)       0.16304         4.43666        -992.96363       0.6291          0.5917          0.1275          0.1121        
     5        A->A (1 A)       0.16813         4.57515        -992.95854       0.0064          0.0066         -0.0249         -0.0214        
     6        A->A (1 A)       0.16859         4.58756        -992.95808       0.0893          0.0974          0.1524          0.1783        
     7        A->A (1 A)       0.17911         4.87395        -992.94756       0.1527          0.1381         -0.2865         -0.2921        
     8        A->A (1 A)       0.19509         5.30867        -992.93158       0.0486          0.0463         -0.0051         -0.0035        
     9        A->A (1 A)       0.20728         5.64026        -992.91940       0.0519          0.0519          0.0434          0.0508        
     10       A->A (1 A)       0.20869         5.67863        -992.91799       0.1628          0.1537         -0.2060         -0.2004        



Contributing excitations and de-excitations
Only contributions with abs(coeff) > 1.00e-01 will be printed:

Excited State    1 (1 A):   0.13210 au   344.92 nm f = 0.0040
  Sums of squares: Xssq =  1.000091e+00; Yssq =  9.115579e-05; Xssq - Yssq =  1.000000e+00
     87a  ->  88a     0.988321 (97.678%)

Excited State    2 (1 A):   0.14811 au   307.63 nm f = 0.0035
  Sums of squares: Xssq =  1.000062e+00; Yssq =  6.177545e-05; Xssq - Yssq =  1.000000e+00
     83a  ->  88a     0.122145 ( 1.492%)
     87a  ->  89a     0.977552 (95.561%)

Excited State    3 (1 A):   0.15691 au   290.38 nm f = 0.2279
  Sums of squares: Xssq =  1.003409e+00; Yssq =  3.408777e-03; Xssq - Yssq =  1.000000e+00
     83a  ->  90a     0.235713 ( 5.556%)
     85a  ->  90a     0.129210 ( 1.670%)
     87a  ->  90a     0.772898 (59.737%)
     87a  ->  91a    -0.249447 ( 6.222%)
     87a  ->  92a    -0.186539 ( 3.480%)
     87a  ->  94a    -0.204699 ( 4.190%)
     87a  ->  95a    -0.243338 ( 5.921%)

Excited State    4 (1 A):   0.16304 au   279.45 nm f = 0.6291
  Sums of squares: Xssq =  1.008182e+00; Yssq =  8.182294e-03; Xssq - Yssq =  1.000000e+00
     83a  ->  90a     0.122674 ( 1.505%)
     84a  ->  90a     0.198817 ( 3.953%)
     85a  ->  90a    -0.141593 ( 2.005%)
     86a  ->  92a     0.100194 ( 1.004%)
     87a  ->  90a     0.264768 ( 7.010%)
     87a  ->  91a    -0.130463 ( 1.702%)
     87a  ->  92a     0.784735 (61.581%)
     87a  ->  94a     0.108190 ( 1.171%)
     87a  ->  95a     0.212457 ( 4.514%)
     87a  ->  96a     0.100407 ( 1.008%)

Excited State    5 (1 A):   0.16813 au   270.99 nm f = 0.0064
  Sums of squares: Xssq =  1.000461e+00; Yssq =  4.605213e-04; Xssq - Yssq =  1.000000e+00
     85a  ->  90a     0.116143 ( 1.349%)
     86a  ->  88a     0.918372 (84.341%)
     86a  ->  89a    -0.318597 (10.150%)

Excited State    6 (1 A):   0.16859 au   270.26 nm f = 0.0893
  Sums of squares: Xssq =  1.015754e+00; Yssq =  1.575370e-02; Xssq - Yssq =  1.000000e+00
     84a  ->  92a    -0.120453 ( 1.451%)
     84a  ->  94a     0.125665 ( 1.579%)
     84a  ->  95a     0.105361 ( 1.110%)
     84a  ->  97a     0.115777 ( 1.340%)
     85a  ->  90a    -0.823418 (67.802%)
     85a  ->  91a     0.319449 (10.205%)
     86a  ->  88a     0.124231 ( 1.543%)
     87a  ->  92a    -0.183713 ( 3.375%)

Excited State    7 (1 A):   0.17911 au   254.38 nm f = 0.1527
  Sums of squares: Xssq =  1.017614e+00; Yssq =  1.761405e-02; Xssq - Yssq =  1.000000e+00
     84a  ->  90a    -0.780589 (60.932%)
     84a  ->  91a     0.303722 ( 9.225%)
     85a  ->  90a    -0.132668 ( 1.760%)
     85a  ->  92a     0.179802 ( 3.233%)
     85a  ->  94a    -0.200998 ( 4.040%)
     85a  ->  95a    -0.195481 ( 3.821%)
     85a  ->  97a    -0.144901 ( 2.100%)
     87a  ->  92a     0.167002 ( 2.789%)

Excited State    8 (1 A):   0.19509 au   233.55 nm f = 0.0486
  Sums of squares: Xssq =  1.012211e+00; Yssq =  1.221072e-02; Xssq - Yssq =  1.000000e+00
     83a  -> 104a     0.166272 ( 2.765%)
     86a  ->  92a     0.505370 (25.540%)
     86a  ->  94a     0.197108 ( 3.885%)
     86a  ->  95a     0.199842 ( 3.994%)
     86a  ->  96a     0.106633 ( 1.137%)
     86a  -> 107a    -0.111057 ( 1.233%)
     87a  ->  92a    -0.142132 ( 2.020%)
     87a  -> 101a    -0.317611 (10.088%)
     87a  -> 103a     0.134396 ( 1.806%)
     87a  -> 104a    -0.414083 (17.146%)
     87a  -> 105a    -0.240740 ( 5.796%)
     87a  -> 108a    -0.175775 ( 3.090%)
     87a  -> 110a    -0.109049 ( 1.189%)

Excited State    9 (1 A):   0.20728 au   219.82 nm f = 0.0519
  Sums of squares: Xssq =  1.000440e+00; Yssq =  4.403283e-04; Xssq - Yssq =  1.000000e+00
     86a  ->  88a     0.301337 ( 9.080%)
     86a  ->  89a     0.843370 (71.127%)
     87a  ->  91a     0.223944 ( 5.015%)
     87a  ->  93a     0.180772 ( 3.268%)
     87a  ->  94a    -0.108100 ( 1.169%)

Excited State   10 (1 A):   0.20869 au   218.33 nm f = 0.1628
  Sums of squares: Xssq =  1.002122e+00; Yssq =  2.121739e-03; Xssq - Yssq =  1.000000e+00
     83a  ->  92a     0.103985 ( 1.081%)
     86a  ->  89a     0.214549 ( 4.603%)
     86a  ->  92a     0.134396 ( 1.806%)
     86a  -> 104a    -0.103966 ( 1.081%)
     87a  ->  90a    -0.114082 ( 1.301%)
     87a  ->  91a    -0.388014 (15.055%)
     87a  ->  93a    -0.538135 (28.959%)
     87a  ->  96a    -0.386789 (14.961%)
     87a  -> 100a     0.205994 ( 4.243%)
     87a  -> 101a     0.137825 ( 1.900%)
     87a  -> 107a     0.162426 ( 2.638%)
     87a  -> 111a     0.118583 ( 1.406%)
     87a  -> 120a     0.103351 ( 1.068%)
     87a  -> 122a     0.100263 ( 1.005%)


******************************************************************************************
**********                               WARNING                                **********
**********       The names of excited state variables changed between 1.5       **********
**********     and 1.6. For a quick solution, remove the symmetry specifier     **********
**********   from the variable name. For full details, see 'Notes on Psivars'   **********
**********                        in the documentation.                         **********
******************************************************************************************


    Psi4 stopped on: Tuesday, 14 May 2024 04:42PM
    Psi4 wall time for execution: 0:43:04.36

*** Psi4 exiting successfully. Buy a developer a beer!
